   6   6   0   0
  0.6525057E+02  0.4240142E-09  0.4292748E-09  0.2493970E-08  0.2000000E-15
  1.000000000000000E-004
  CAR 
 unknown system                          
      7.15172006    -12.91225042  301     -0.51368788      1.00000000
    -12.912  0.0000E+00  0.0000E+00  0.0000E+00  0.0000E+00
    -12.845  0.0000E+00  0.0000E+00  0.0000E+00  0.0000E+00
    -12.778  0.0000E+00  0.0000E+00  0.0000E+00  0.0000E+00
    -12.712  0.0000E+00  0.0000E+00  0.0000E+00  0.0000E+00
    -12.645  0.0000E+00  0.0000E+00  0.0000E+00  0.0000E+00
    -12.578  0.0000E+00  0.0000E+00  0.0000E+00  0.0000E+00
    -12.511  0.0000E+00  0.0000E+00  0.0000E+00  0.0000E+00
    -12.444  0.0000E+00  0.0000E+00  0.0000E+00  0.0000E+00
    -12.377  0.0000E+00  0.0000E+00  0.0000E+00  0.0000E+00
    -12.310  0.0000E+00  0.0000E+00  0.0000E+00  0.0000E+00
    -12.243  0.9211E-14  0.9210E-14  0.6160E-15  0.6160E-15
    -12.177  0.9351E-09  0.9350E-09  0.6254E-10  0.6253E-10
    -12.110  0.2997E-05  0.2997E-05  0.2005E-06  0.2005E-06
    -12.043  0.3459E-03  0.3459E-03  0.2333E-04  0.2333E-04
    -11.976  0.1953E-02  0.1953E-02  0.1539E-03  0.1539E-03
    -11.909  0.8627E-03  0.8627E-03  0.2116E-03  0.2116E-03
    -11.842  0.5072E-02  0.5072E-02  0.5509E-03  0.5509E-03
    -11.775  0.1138E-01  0.1138E-01  0.1312E-02  0.1312E-02
    -11.708  0.1727E-02  0.1727E-02  0.1428E-02  0.1428E-02
    -11.642  0.1296E-04  0.1296E-04  0.1429E-02  0.1429E-02
    -11.575  0.1003E-03  0.1003E-03  0.1435E-02  0.1435E-02
    -11.508  0.4196E-02  0.4196E-02  0.1716E-02  0.1716E-02
    -11.441  0.1157E-01  0.1157E-01  0.2489E-02  0.2489E-02
    -11.374  0.4104E-02  0.4104E-02  0.2764E-02  0.2764E-02
    -11.307  0.1051E-01  0.1051E-01  0.3467E-02  0.3467E-02
    -11.240  0.5849E-02  0.5849E-02  0.3858E-02  0.3858E-02
    -11.173  0.2924E-03  0.2924E-03  0.3877E-02  0.3877E-02
    -11.106  0.8566E-06  0.8566E-06  0.3878E-02  0.3878E-02
    -11.040  0.5432E-05  0.5432E-05  0.3878E-02  0.3878E-02
    -10.973  0.1110E-02  0.1110E-02  0.3952E-02  0.3952E-02
    -10.906  0.1396E-01  0.1396E-01  0.4886E-02  0.4886E-02
    -10.839  0.2028E-01  0.2028E-01  0.6242E-02  0.6242E-02
    -10.772  0.1005E-01  0.1005E-01  0.6914E-02  0.6914E-02
    -10.705  0.1997E-01  0.1997E-01  0.8250E-02  0.8250E-02
    -10.638  0.7315E-02  0.7315E-02  0.8739E-02  0.8739E-02
    -10.571  0.3650E-02  0.3650E-02  0.8983E-02  0.8983E-02
    -10.505  0.8592E-02  0.8592E-02  0.9558E-02  0.9558E-02
    -10.438  0.1965E-01  0.1965E-01  0.1087E-01  0.1087E-01
    -10.371  0.1862E-01  0.1862E-01  0.1212E-01  0.1212E-01
    -10.304  0.2297E-01  0.2297E-01  0.1365E-01  0.1365E-01
    -10.237  0.3322E-02  0.3322E-02  0.1388E-01  0.1388E-01
    -10.170  0.3675E-03  0.3675E-03  0.1390E-01  0.1390E-01
    -10.103  0.1256E-01  0.1256E-01  0.1474E-01  0.1474E-01
    -10.036  0.3353E-01  0.3353E-01  0.1698E-01  0.1698E-01
     -9.970  0.2536E-01  0.2536E-01  0.1868E-01  0.1868E-01
     -9.903  0.3088E-01  0.3088E-01  0.2074E-01  0.2074E-01
     -9.836  0.9970E-02  0.9969E-02  0.2141E-01  0.2141E-01
     -9.769  0.2663E-03  0.2663E-03  0.2143E-01  0.2143E-01
     -9.702  0.5685E-04  0.5686E-04  0.2143E-01  0.2143E-01
     -9.635  0.3522E-02  0.3522E-02  0.2167E-01  0.2167E-01
     -9.568  0.1196E-01  0.1196E-01  0.2247E-01  0.2247E-01
     -9.501  0.5489E-02  0.5489E-02  0.2283E-01  0.2283E-01
     -9.434  0.1193E-01  0.1193E-01  0.2363E-01  0.2363E-01
     -9.368  0.3602E-02  0.3601E-02  0.2387E-01  0.2387E-01
     -9.301  0.6025E-04  0.6024E-04  0.2388E-01  0.2388E-01
     -9.234  0.3770E-05  0.3771E-05  0.2388E-01  0.2388E-01
     -9.167  0.1183E-02  0.1183E-02  0.2396E-01  0.2396E-01
     -9.100  0.1743E-01  0.1743E-01  0.2512E-01  0.2512E-01
     -9.033  0.1736E-01  0.1736E-01  0.2628E-01  0.2628E-01
     -8.966  0.8945E-02  0.8945E-02  0.2688E-01  0.2688E-01
     -8.899  0.9293E-02  0.9293E-02  0.2750E-01  0.2750E-01
     -8.833  0.3670E-02  0.3670E-02  0.2775E-01  0.2775E-01
     -8.766  0.1467E-01  0.1467E-01  0.2873E-01  0.2873E-01
     -8.699  0.1541E-01  0.1541E-01  0.2976E-01  0.2976E-01
     -8.632  0.3520E-02  0.3519E-02  0.3000E-01  0.3000E-01
     -8.565  0.5451E-04  0.5450E-04  0.3000E-01  0.3000E-01
     -8.498  0.3319E-07  0.3317E-07  0.3000E-01  0.3000E-01
     -8.431  0.6653E-12  0.6650E-12  0.3000E-01  0.3000E-01
     -8.364  0.0000E+00  0.0000E+00  0.3000E-01  0.3000E-01
     -8.298  0.0000E+00  0.0000E+00  0.3000E-01  0.3000E-01
     -8.231  0.0000E+00  0.0000E+00  0.3000E-01  0.3000E-01
     -8.164  0.0000E+00  0.0000E+00  0.3000E-01  0.3000E-01
     -8.097  0.0000E+00  0.0000E+00  0.3000E-01  0.3000E-01
     -8.030  0.0000E+00  0.0000E+00  0.3000E-01  0.3000E-01
     -7.963  0.0000E+00  0.0000E+00  0.3000E-01  0.3000E-01
     -7.896  0.0000E+00  0.0000E+00  0.3000E-01  0.3000E-01
     -7.829  0.0000E+00  0.0000E+00  0.3000E-01  0.3000E-01
     -7.762  0.0000E+00  0.0000E+00  0.3000E-01  0.3000E-01
     -7.696  0.0000E+00  0.0000E+00  0.3000E-01  0.3000E-01
     -7.629  0.0000E+00  0.0000E+00  0.3000E-01  0.3000E-01
     -7.562  0.0000E+00  0.0000E+00  0.3000E-01  0.3000E-01
     -7.495  0.0000E+00  0.0000E+00  0.3000E-01  0.3000E-01
     -7.428  0.0000E+00  0.0000E+00  0.3000E-01  0.3000E-01
     -7.361  0.0000E+00  0.0000E+00  0.3000E-01  0.3000E-01
     -7.294  0.0000E+00  0.0000E+00  0.3000E-01  0.3000E-01
     -7.227  0.0000E+00  0.0000E+00  0.3000E-01  0.3000E-01
     -7.161  0.0000E+00  0.0000E+00  0.3000E-01  0.3000E-01
     -7.094  0.0000E+00  0.0000E+00  0.3000E-01  0.3000E-01
     -7.027  0.7724E-16  0.7724E-16  0.3000E-01  0.3000E-01
     -6.960  0.3644E-10  0.3643E-10  0.3000E-01  0.3000E-01
     -6.893  0.5276E-06  0.5276E-06  0.3000E-01  0.3000E-01
     -6.826  0.2583E-03  0.2583E-03  0.3002E-01  0.3002E-01
     -6.759  0.5827E-02  0.5827E-02  0.3041E-01  0.3041E-01
     -6.692  0.1322E-01  0.1322E-01  0.3129E-01  0.3129E-01
     -6.626  0.7391E-02  0.7391E-02  0.3179E-01  0.3179E-01
     -6.559  0.1175E-01  0.1175E-01  0.3257E-01  0.3257E-01
     -6.492  0.1442E-01  0.1442E-01  0.3354E-01  0.3354E-01
     -6.425  0.2041E-02  0.2041E-02  0.3367E-01  0.3367E-01
     -6.358  0.4972E-03  0.4972E-03  0.3371E-01  0.3371E-01
     -6.291  0.9079E-02  0.9079E-02  0.3431E-01  0.3431E-01
     -6.224  0.3091E-01  0.3091E-01  0.3638E-01  0.3638E-01
     -6.157  0.3162E-01  0.3162E-01  0.3849E-01  0.3849E-01
     -6.091  0.1937E-01  0.1937E-01  0.3979E-01  0.3979E-01
     -6.024  0.7355E-02  0.7355E-02  0.4028E-01  0.4028E-01
     -5.957  0.1761E-01  0.1761E-01  0.4146E-01  0.4146E-01
     -5.890  0.2977E-01  0.2977E-01  0.4345E-01  0.4345E-01
     -5.823  0.3218E-01  0.3218E-01  0.4560E-01  0.4560E-01
     -5.756  0.7588E-02  0.7588E-02  0.4611E-01  0.4611E-01
     -5.689  0.1744E-03  0.1744E-03  0.4612E-01  0.4612E-01
     -5.622  0.1893E-06  0.1893E-06  0.4612E-01  0.4612E-01
     -5.555  0.6859E-05  0.6859E-05  0.4612E-01  0.4612E-01
     -5.489  0.1060E-02  0.1060E-02  0.4619E-01  0.4619E-01
     -5.422  0.8818E-02  0.8818E-02  0.4678E-01  0.4678E-01
     -5.355  0.1141E-01  0.1141E-01  0.4755E-01  0.4755E-01
     -5.288  0.1649E-01  0.1649E-01  0.4865E-01  0.4865E-01
     -5.221  0.1875E-01  0.1875E-01  0.4990E-01  0.4990E-01
     -5.154  0.8348E-02  0.8348E-02  0.5046E-01  0.5046E-01
     -5.087  0.7438E-02  0.7438E-02  0.5096E-01  0.5096E-01
     -5.020  0.9280E-03  0.9280E-03  0.5102E-01  0.5102E-01
     -4.954  0.9651E-03  0.9651E-03  0.5109E-01  0.5109E-01
     -4.887  0.9163E-02  0.9163E-02  0.5170E-01  0.5170E-01
     -4.820  0.1886E-01  0.1886E-01  0.5296E-01  0.5296E-01
     -4.753  0.1634E-01  0.1634E-01  0.5405E-01  0.5405E-01
     -4.686  0.1606E-01  0.1606E-01  0.5513E-01  0.5513E-01
     -4.619  0.7619E-02  0.7619E-02  0.5564E-01  0.5564E-01
     -4.552  0.3797E-02  0.3797E-02  0.5589E-01  0.5589E-01
     -4.485  0.4211E-03  0.4211E-03  0.5592E-01  0.5592E-01
     -4.419  0.2663E-05  0.2663E-05  0.5592E-01  0.5592E-01
     -4.352  0.1599E-03  0.1599E-03  0.5593E-01  0.5593E-01
     -4.285  0.2777E-02  0.2777E-02  0.5611E-01  0.5611E-01
     -4.218  0.3022E-02  0.3022E-02  0.5632E-01  0.5632E-01
     -4.151  0.3643E-02  0.3642E-02  0.5656E-01  0.5656E-01
     -4.084  0.2176E-01  0.2176E-01  0.5802E-01  0.5802E-01
     -4.017  0.3298E-01  0.3298E-01  0.6022E-01  0.6022E-01
     -3.950  0.1717E-01  0.1717E-01  0.6137E-01  0.6137E-01
     -3.883  0.7108E-02  0.7108E-02  0.6185E-01  0.6185E-01
     -3.817  0.1242E-01  0.1242E-01  0.6268E-01  0.6268E-01
     -3.750  0.1837E-01  0.1837E-01  0.6390E-01  0.6390E-01
     -3.683  0.4198E-01  0.4198E-01  0.6671E-01  0.6671E-01
     -3.616  0.4094E-01  0.4094E-01  0.6945E-01  0.6945E-01
     -3.549  0.1252E-01  0.1252E-01  0.7029E-01  0.7029E-01
     -3.482  0.7827E-02  0.7827E-02  0.7081E-01  0.7081E-01
     -3.415  0.1838E-01  0.1838E-01  0.7204E-01  0.7204E-01
     -3.348  0.2313E-01  0.2313E-01  0.7359E-01  0.7359E-01
     -3.282  0.1048E-01  0.1048E-01  0.7429E-01  0.7429E-01
     -3.215  0.1002E-01  0.1002E-01  0.7496E-01  0.7496E-01
     -3.148  0.9904E-02  0.9904E-02  0.7562E-01  0.7562E-01
     -3.081  0.4165E-02  0.4165E-02  0.7590E-01  0.7590E-01
     -3.014  0.1691E-01  0.1692E-01  0.7703E-01  0.7703E-01
     -2.947  0.1891E-01  0.1891E-01  0.7829E-01  0.7829E-01
     -2.880  0.2449E-01  0.2449E-01  0.7993E-01  0.7993E-01
     -2.813  0.2056E-01  0.2056E-01  0.8131E-01  0.8131E-01
     -2.747  0.1198E-01  0.1198E-01  0.8211E-01  0.8211E-01
     -2.680  0.2568E-01  0.2568E-01  0.8383E-01  0.8383E-01
     -2.613  0.2354E-01  0.2354E-01  0.8540E-01  0.8540E-01
     -2.546  0.3363E-01  0.3363E-01  0.8765E-01  0.8765E-01
     -2.479  0.1921E-01  0.1921E-01  0.8893E-01  0.8893E-01
     -2.412  0.1912E-01  0.1912E-01  0.9021E-01  0.9021E-01
     -2.345  0.2970E-01  0.2970E-01  0.9220E-01  0.9220E-01
     -2.278  0.1909E-01  0.1909E-01  0.9348E-01  0.9348E-01
     -2.211  0.1968E-01  0.1968E-01  0.9479E-01  0.9479E-01
     -2.145  0.1096E-01  0.1096E-01  0.9553E-01  0.9553E-01
     -2.078  0.1544E-01  0.1544E-01  0.9656E-01  0.9656E-01
     -2.011  0.2110E-01  0.2110E-01  0.9797E-01  0.9797E-01
     -1.944  0.2639E-01  0.2639E-01  0.9974E-01  0.9974E-01
     -1.877  0.1159E-01  0.1159E-01  0.1005E+00  0.1005E+00
     -1.810  0.4272E-02  0.4272E-02  0.1008E+00  0.1008E+00
     -1.743  0.1241E-01  0.1241E-01  0.1016E+00  0.1016E+00
     -1.676  0.1189E-01  0.1189E-01  0.1024E+00  0.1024E+00
     -1.610  0.4171E-02  0.4171E-02  0.1027E+00  0.1027E+00
     -1.543  0.7905E-02  0.7905E-02  0.1032E+00  0.1032E+00
     -1.476  0.1243E-01  0.1243E-01  0.1041E+00  0.1041E+00
     -1.409  0.5206E-02  0.5206E-02  0.1044E+00  0.1044E+00
     -1.342  0.1338E-01  0.1338E-01  0.1053E+00  0.1053E+00
     -1.275  0.1907E-01  0.1907E-01  0.1066E+00  0.1066E+00
     -1.208  0.2194E-01  0.2194E-01  0.1080E+00  0.1080E+00
     -1.141  0.2925E-01  0.2925E-01  0.1100E+00  0.1100E+00
     -1.075  0.3735E-01  0.3735E-01  0.1125E+00  0.1125E+00
     -1.008  0.3421E-01  0.3421E-01  0.1148E+00  0.1148E+00
     -0.941  0.2718E-01  0.2718E-01  0.1166E+00  0.1166E+00
     -0.874  0.1216E-01  0.1216E-01  0.1174E+00  0.1174E+00
     -0.807  0.1193E-01  0.1192E-01  0.1182E+00  0.1182E+00
     -0.740  0.3808E-02  0.3808E-02  0.1185E+00  0.1185E+00
     -0.673  0.5407E-02  0.5407E-02  0.1188E+00  0.1188E+00
     -0.606  0.1163E-01  0.1163E-01  0.1196E+00  0.1196E+00
     -0.539  0.5641E-02  0.5641E-02  0.1200E+00  0.1200E+00
     -0.473  0.5009E-03  0.5009E-03  0.1200E+00  0.1200E+00
     -0.406  0.3121E-02  0.3121E-02  0.1202E+00  0.1202E+00
     -0.339  0.2496E-02  0.2496E-02  0.1204E+00  0.1204E+00
     -0.272  0.2261E-03  0.2261E-03  0.1204E+00  0.1204E+00
     -0.205  0.2047E-02  0.2047E-02  0.1205E+00  0.1205E+00
     -0.138  0.3741E-02  0.3741E-02  0.1208E+00  0.1208E+00
     -0.071  0.5065E-02  0.5065E-02  0.1211E+00  0.1211E+00
     -0.004  0.8876E-02  0.8876E-02  0.1217E+00  0.1217E+00
      0.062  0.1541E-02  0.1541E-02  0.1218E+00  0.1218E+00
      0.129  0.2296E-04  0.2296E-04  0.1218E+00  0.1218E+00
      0.196  0.2628E-05  0.2627E-05  0.1218E+00  0.1218E+00
      0.263  0.6257E-03  0.6256E-03  0.1219E+00  0.1219E+00
      0.330  0.6830E-02  0.6830E-02  0.1223E+00  0.1223E+00
      0.397  0.7790E-02  0.7790E-02  0.1229E+00  0.1229E+00
      0.464  0.7579E-02  0.7579E-02  0.1234E+00  0.1234E+00
      0.531  0.4054E-02  0.4054E-02  0.1236E+00  0.1236E+00
      0.597  0.2230E-01  0.2230E-01  0.1251E+00  0.1251E+00
      0.664  0.2478E-01  0.2478E-01  0.1268E+00  0.1268E+00
      0.731  0.2118E-01  0.2118E-01  0.1282E+00  0.1282E+00
      0.798  0.2136E-01  0.2136E-01  0.1296E+00  0.1296E+00
      0.865  0.1808E-01  0.1808E-01  0.1308E+00  0.1308E+00
      0.932  0.2572E-01  0.2572E-01  0.1326E+00  0.1326E+00
      0.999  0.2156E-01  0.2156E-01  0.1340E+00  0.1340E+00
      1.066  0.1479E-01  0.1479E-01  0.1350E+00  0.1350E+00
      1.133  0.2726E-01  0.2726E-01  0.1368E+00  0.1368E+00
      1.199  0.2654E-01  0.2654E-01  0.1386E+00  0.1386E+00
      1.266  0.1554E-01  0.1554E-01  0.1396E+00  0.1396E+00
      1.333  0.8940E-02  0.8941E-02  0.1402E+00  0.1402E+00
      1.400  0.5269E-02  0.5268E-02  0.1406E+00  0.1406E+00
      1.467  0.2613E-01  0.2612E-01  0.1423E+00  0.1423E+00
      1.534  0.3946E-01  0.3946E-01  0.1450E+00  0.1450E+00
      1.601  0.2245E-01  0.2246E-01  0.1465E+00  0.1465E+00
      1.668  0.2371E-01  0.2372E-01  0.1480E+00  0.1480E+00
      1.734  0.1056E-01  0.1056E-01  0.1488E+00  0.1488E+00
      1.801  0.1631E-01  0.1630E-01  0.1498E+00  0.1498E+00
      1.868  0.1793E-01  0.1793E-01  0.1510E+00  0.1510E+00
      1.935  0.2115E-01  0.2115E-01  0.1525E+00  0.1525E+00
      2.002  0.3579E-01  0.3579E-01  0.1549E+00  0.1549E+00
      2.069  0.2114E-01  0.2114E-01  0.1563E+00  0.1563E+00
      2.136  0.2615E-01  0.2615E-01  0.1580E+00  0.1580E+00
      2.203  0.2723E-01  0.2723E-01  0.1598E+00  0.1598E+00
      2.269  0.1136E-01  0.1136E-01  0.1606E+00  0.1606E+00
      2.336  0.1188E-01  0.1189E-01  0.1614E+00  0.1614E+00
      2.403  0.6637E-02  0.6638E-02  0.1618E+00  0.1618E+00
      2.470  0.1185E-01  0.1185E-01  0.1626E+00  0.1626E+00
      2.537  0.2059E-01  0.2058E-01  0.1640E+00  0.1640E+00
      2.604  0.1305E-01  0.1305E-01  0.1649E+00  0.1649E+00
      2.671  0.1999E-01  0.1999E-01  0.1662E+00  0.1662E+00
      2.738  0.1462E-01  0.1462E-01  0.1672E+00  0.1672E+00
      2.805  0.1565E-01  0.1564E-01  0.1682E+00  0.1682E+00
      2.871  0.2099E-01  0.2099E-01  0.1696E+00  0.1696E+00
      2.938  0.1296E-01  0.1296E-01  0.1705E+00  0.1705E+00
      3.005  0.1550E-01  0.1550E-01  0.1715E+00  0.1715E+00
      3.072  0.1336E-01  0.1335E-01  0.1724E+00  0.1724E+00
      3.139  0.2847E-01  0.2846E-01  0.1743E+00  0.1743E+00
      3.206  0.2209E-01  0.2208E-01  0.1758E+00  0.1758E+00
      3.273  0.2213E-01  0.2209E-01  0.1773E+00  0.1773E+00
      3.340  0.1769E-01  0.1773E-01  0.1785E+00  0.1785E+00
      3.406  0.2068E-01  0.2069E-01  0.1799E+00  0.1799E+00
      3.473  0.3631E-01  0.3623E-01  0.1823E+00  0.1823E+00
      3.540  0.2537E-01  0.2493E-01  0.1840E+00  0.1840E+00
      3.607  0.1502E-01  0.1485E-01  0.1850E+00  0.1849E+00
      3.674  0.2660E-01  0.2546E-01  0.1868E+00  0.1867E+00
      3.741  0.2939E-01  0.3030E-01  0.1887E+00  0.1887E+00
      3.808  0.2814E-01  0.2864E-01  0.1906E+00  0.1906E+00
      3.875  0.3291E-01  0.3309E-01  0.1928E+00  0.1928E+00
      3.941  0.2627E-01  0.2569E-01  0.1946E+00  0.1945E+00
      4.008  0.2645E-01  0.2609E-01  0.1964E+00  0.1963E+00
      4.075  0.2571E-01  0.2648E-01  0.1981E+00  0.1980E+00
      4.142  0.2746E-01  0.2624E-01  0.1999E+00  0.1998E+00
      4.209  0.2310E-01  0.2361E-01  0.2015E+00  0.2014E+00
      4.276  0.1432E-01  0.1485E-01  0.2024E+00  0.2024E+00
      4.343  0.2004E-01  0.2023E-01  0.2037E+00  0.2037E+00
      4.410  0.3063E-01  0.2983E-01  0.2058E+00  0.2057E+00
      4.477  0.4250E-01  0.4317E-01  0.2086E+00  0.2086E+00
      4.543  0.1865E-01  0.1909E-01  0.2099E+00  0.2099E+00
      4.610  0.2351E-01  0.2309E-01  0.2115E+00  0.2114E+00
      4.677  0.2601E-01  0.2396E-01  0.2132E+00  0.2130E+00
      4.744  0.1665E-01  0.1698E-01  0.2143E+00  0.2142E+00
      4.811  0.1142E-01  0.1281E-01  0.2151E+00  0.2150E+00
      4.878  0.2591E-01  0.2405E-01  0.2168E+00  0.2166E+00
      4.945  0.2465E-01  0.2519E-01  0.2185E+00  0.2183E+00
      5.012  0.9870E-02  0.1128E-01  0.2191E+00  0.2191E+00
      5.078  0.5358E-02  0.6082E-02  0.2195E+00  0.2195E+00
      5.145  0.1827E-01  0.1769E-01  0.2207E+00  0.2207E+00
      5.212  0.2300E-01  0.2148E-01  0.2222E+00  0.2221E+00
      5.279  0.3501E-01  0.3370E-01  0.2246E+00  0.2243E+00
      5.346  0.2644E-01  0.2748E-01  0.2263E+00  0.2262E+00
      5.413  0.2138E-01  0.2111E-01  0.2278E+00  0.2276E+00
      5.480  0.2425E-01  0.2600E-01  0.2294E+00  0.2293E+00
      5.547  0.1851E-01  0.1834E-01  0.2306E+00  0.2306E+00
      5.613  0.2565E-01  0.2461E-01  0.2324E+00  0.2322E+00
      5.680  0.2313E-01  0.2321E-01  0.2339E+00  0.2338E+00
      5.747  0.1962E-01  0.2122E-01  0.2352E+00  0.2352E+00
      5.814  0.1508E-01  0.1546E-01  0.2362E+00  0.2362E+00
      5.881  0.3394E-02  0.3404E-02  0.2364E+00  0.2364E+00
      5.948  0.7985E-02  0.7968E-02  0.2370E+00  0.2370E+00
      6.015  0.2936E-02  0.2939E-02  0.2372E+00  0.2372E+00
      6.082  0.5920E-02  0.5587E-02  0.2376E+00  0.2375E+00
      6.149  0.1128E-01  0.1080E-01  0.2383E+00  0.2383E+00
      6.215  0.1440E-01  0.1474E-01  0.2393E+00  0.2393E+00
      6.282  0.9413E-02  0.9780E-02  0.2399E+00  0.2399E+00
      6.349  0.1199E-02  0.1382E-02  0.2400E+00  0.2400E+00
      6.416  0.8752E-05  0.1162E-04  0.2400E+00  0.2400E+00
      6.483  0.2310E-08  0.3563E-08  0.2400E+00  0.2400E+00
      6.550  0.1919E-13  0.3450E-13  0.2400E+00  0.2400E+00
      6.617  0.0000E+00  0.0000E+00  0.2400E+00  0.2400E+00
      6.684  0.0000E+00  0.0000E+00  0.2400E+00  0.2400E+00
      6.750  0.0000E+00  0.0000E+00  0.2400E+00  0.2400E+00
      6.817  0.0000E+00  0.0000E+00  0.2400E+00  0.2400E+00
      6.884  0.0000E+00  0.0000E+00  0.2400E+00  0.2400E+00
      6.951  0.0000E+00  0.0000E+00  0.2400E+00  0.2400E+00
      7.018  0.0000E+00  0.0000E+00  0.2400E+00  0.2400E+00
      7.085  0.0000E+00  0.0000E+00  0.2400E+00  0.2400E+00
      7.152  0.0000E+00  0.0000E+00  0.2400E+00  0.2400E+00
