    6    6  100    2
  0.6525057E+02  0.4240142E-09  0.4292748E-09  0.2493970E-08  0.2000000E-15
  1.000000000000000E-004
  CAR 
 unknown system                          
     24     98     24
 
  0.0000000E+00  0.0000000E+00  0.0000000E+00  0.1020408E-01
    1      -12.000249    -12.000248   1.000000   1.000000
    2      -10.898692    -10.898692   1.000000   1.000000
    3      -10.084440    -10.084442   1.000000   1.000000
    4       -6.104260     -6.104259   1.000000   1.000000
    5       -3.508777     -3.508776   1.000000   1.000000
    6       -2.083420     -2.083420   1.000000   1.000000
    7       -1.888038     -1.888038   1.000000   1.000000
    8       -1.313783     -1.313782   1.000000   1.000000
    9       -1.125174     -1.125173   1.000000   1.000000
   10       -1.035432     -1.035432   1.000000   1.000000
   11       -0.424884     -0.424886   0.006007   0.006008
   12       -0.398900     -0.398901   0.000584   0.000584
   13       -0.025521     -0.025521   0.000000   0.000000
   14        1.216310      1.216316   0.000000   0.000000
   15        1.585945      1.586031   0.000000   0.000000
   16        1.781206      1.781209   0.000000   0.000000
   17        2.232266      2.232267   0.000000   0.000000
   18        2.237824      2.238028   0.000000   0.000000
   19        2.428882      2.428884   0.000000   0.000000
   20        3.220424      3.220638   0.000000   0.000000
   21        3.553447      3.570527   0.000000   0.000000
   22        3.676105      3.676102   0.000000   0.000000
   23        3.807424      3.808433   0.000000   0.000000
   24        4.251135      4.263777   0.000000   0.000000
 
  0.1428571E+00 -0.1387779E-16  0.0000000E+00  0.1020408E-01
    1      -11.817297    -11.817296   1.000000   1.000000
    2      -10.742482    -10.742482   1.000000   1.000000
    3       -9.914972     -9.914975   1.000000   1.000000
    4       -6.002372     -6.002372   1.000000   1.000000
    5       -3.691644     -3.691644   1.000000   1.000000
    6       -3.229590     -3.229589   1.000000   1.000000
    7       -2.465034     -2.465033   1.000000   1.000000
    8       -2.255136     -2.255136   1.000000   1.000000
    9       -1.539086     -1.539088   1.000000   1.000000
   10       -1.280650     -1.280650   1.000000   1.000000
   11       -1.119521     -1.119522   1.000000   1.000000
   12       -0.717100     -0.717103   1.000000   1.000000
   13        0.406739      0.406741   0.000000   0.000000
   14        1.520238      1.520294   0.000000   0.000000
   15        1.887551      1.887564   0.000000   0.000000
   16        1.947797      1.947852   0.000000   0.000000
   17        2.478513      2.478514   0.000000   0.000000
   18        2.590827      2.590845   0.000000   0.000000
   19        3.092732      3.092733   0.000000   0.000000
   20        3.261878      3.262621   0.000000   0.000000
   21        3.719414      3.731177   0.000000   0.000000
   22        4.013978      4.020798   0.000000   0.000000
   23        4.328489      4.328487   0.000000   0.000000
   24        4.396180      4.396187   0.000000   0.000000
 
  0.2857143E+00  0.0000000E+00  0.0000000E+00  0.1020408E-01
    1      -11.302190    -11.302190   1.000000   1.000000
    2      -10.345940    -10.345940   1.000000   1.000000
    3       -9.458180     -9.458183   1.000000   1.000000
    4       -5.959346     -5.959345   1.000000   1.000000
    5       -5.275438     -5.275437   1.000000   1.000000
    6       -4.031048     -4.031049   1.000000   1.000000
    7       -3.584943     -3.584943   1.000000   1.000000
    8       -3.052214     -3.052213   1.000000   1.000000
    9       -2.440002     -2.440002   1.000000   1.000000
   10       -1.790985     -1.790985   1.000000   1.000000
   11       -1.232866     -1.232868   1.000000   1.000000
   12       -1.199556     -1.199559   1.000000   1.000000
   13       -0.191095     -0.191092   0.000000   0.000000
   14        1.126497      1.126509   0.000000   0.000000
   15        1.432268      1.432275   0.000000   0.000000
   16        2.034381      2.034399   0.000000   0.000000
   17        2.329894      2.329902   0.000000   0.000000
   18        2.708296      2.708297   0.000000   0.000000
   19        3.920741      3.923363   0.000000   0.000000
   20        4.369240      4.374317   0.000000   0.000000
   21        4.585694      4.585696   0.000000   0.000000
   22        4.673144      4.678266   0.000000   0.000000
   23        4.908070      4.918782   0.000000   0.000000
   24        5.220423      5.230588   0.000000   0.000000
 
  0.4285714E+00  0.2775558E-16  0.0000000E+00  0.1020408E-01
    1      -10.631310    -10.631310   1.000000   1.000000
    2      -10.050366    -10.050366   1.000000   1.000000
    3       -8.952758     -8.952761   1.000000   1.000000
    4       -6.534515     -6.534514   1.000000   1.000000
    5       -6.200043     -6.200042   1.000000   1.000000
    6       -5.231623     -5.231625   1.000000   1.000000
    7       -3.673119     -3.673119   1.000000   1.000000
    8       -3.402281     -3.402280   1.000000   1.000000
    9       -2.683119     -2.683117   1.000000   1.000000
   10       -2.126803     -2.126803   1.000000   1.000000
   11       -1.564828     -1.564831   1.000000   1.000000
   12       -1.241870     -1.241873   1.000000   1.000000
   13       -0.632370     -0.632367   0.999606   0.999606
   14        0.579990      0.579991   0.000000   0.000000
   15        1.177324      1.177326   0.000000   0.000000
   16        1.719315      1.719324   0.000000   0.000000
   17        1.958402      1.958400   0.000000   0.000000
   18        2.601262      2.601263   0.000000   0.000000
   19        3.582473      3.582496   0.000000   0.000000
   20        4.437849      4.438375   0.000000   0.000000
   21        5.279239      5.281626   0.000000   0.000000
   22        5.469256      5.469256   0.000000   0.000000
   23        5.636922      5.647242   0.000000   0.000000
   24        6.156165      6.168704   0.000000   0.000000
 
 -0.4285714E+00 -0.2775558E-16  0.0000000E+00  0.1020408E-01
    1      -10.631310    -10.631310   1.000000   1.000000
    2      -10.050366    -10.050366   1.000000   1.000000
    3       -8.952758     -8.952761   1.000000   1.000000
    4       -6.534515     -6.534514   1.000000   1.000000
    5       -6.200043     -6.200042   1.000000   1.000000
    6       -5.231623     -5.231625   1.000000   1.000000
    7       -3.673119     -3.673119   1.000000   1.000000
    8       -3.402281     -3.402280   1.000000   1.000000
    9       -2.683119     -2.683117   1.000000   1.000000
   10       -2.126803     -2.126803   1.000000   1.000000
   11       -1.564828     -1.564831   1.000000   1.000000
   12       -1.241870     -1.241873   1.000000   1.000000
   13       -0.632370     -0.632367   0.999606   0.999606
   14        0.579990      0.579991   0.000000   0.000000
   15        1.177324      1.177326   0.000000   0.000000
   16        1.719315      1.719324   0.000000   0.000000
   17        1.958402      1.958400   0.000000   0.000000
   18        2.601262      2.601263   0.000000   0.000000
   19        3.582473      3.582496   0.000000   0.000000
   20        4.437849      4.438375   0.000000   0.000000
   21        5.279239      5.281626   0.000000   0.000000
   22        5.469256      5.469256   0.000000   0.000000
   23        5.636922      5.647242   0.000000   0.000000
   24        6.156165      6.168704   0.000000   0.000000
 
 -0.2857143E+00  0.0000000E+00  0.0000000E+00  0.1020408E-01
    1      -11.302190    -11.302190   1.000000   1.000000
    2      -10.345940    -10.345940   1.000000   1.000000
    3       -9.458180     -9.458183   1.000000   1.000000
    4       -5.959346     -5.959345   1.000000   1.000000
    5       -5.275438     -5.275437   1.000000   1.000000
    6       -4.031048     -4.031049   1.000000   1.000000
    7       -3.584943     -3.584943   1.000000   1.000000
    8       -3.052214     -3.052213   1.000000   1.000000
    9       -2.440002     -2.440002   1.000000   1.000000
   10       -1.790985     -1.790985   1.000000   1.000000
   11       -1.232866     -1.232868   1.000000   1.000000
   12       -1.199556     -1.199559   1.000000   1.000000
   13       -0.191095     -0.191092   0.000000   0.000000
   14        1.126497      1.126509   0.000000   0.000000
   15        1.432268      1.432275   0.000000   0.000000
   16        2.034381      2.034399   0.000000   0.000000
   17        2.329894      2.329902   0.000000   0.000000
   18        2.708296      2.708297   0.000000   0.000000
   19        3.920741      3.923363   0.000000   0.000000
   20        4.369240      4.374317   0.000000   0.000000
   21        4.585694      4.585696   0.000000   0.000000
   22        4.673144      4.678266   0.000000   0.000000
   23        4.908070      4.918782   0.000000   0.000000
   24        5.220423      5.230588   0.000000   0.000000
 
 -0.1428571E+00  0.1387779E-16  0.0000000E+00  0.1020408E-01
    1      -11.817297    -11.817296   1.000000   1.000000
    2      -10.742482    -10.742482   1.000000   1.000000
    3       -9.914972     -9.914975   1.000000   1.000000
    4       -6.002372     -6.002372   1.000000   1.000000
    5       -3.691644     -3.691644   1.000000   1.000000
    6       -3.229590     -3.229589   1.000000   1.000000
    7       -2.465034     -2.465033   1.000000   1.000000
    8       -2.255136     -2.255136   1.000000   1.000000
    9       -1.539086     -1.539088   1.000000   1.000000
   10       -1.280650     -1.280650   1.000000   1.000000
   11       -1.119521     -1.119522   1.000000   1.000000
   12       -0.717100     -0.717103   1.000000   1.000000
   13        0.406739      0.406741   0.000000   0.000000
   14        1.520238      1.520294   0.000000   0.000000
   15        1.887551      1.887564   0.000000   0.000000
   16        1.947797      1.947852   0.000000   0.000000
   17        2.478513      2.478514   0.000000   0.000000
   18        2.590827      2.590845   0.000000   0.000000
   19        3.092732      3.092733   0.000000   0.000000
   20        3.261878      3.262621   0.000000   0.000000
   21        3.719414      3.731177   0.000000   0.000000
   22        4.013978      4.020798   0.000000   0.000000
   23        4.328489      4.328487   0.000000   0.000000
   24        4.396180      4.396187   0.000000   0.000000
 
  0.0000000E+00  0.1428571E+00  0.0000000E+00  0.1020408E-01
    1      -11.824087    -11.824086   1.000000   1.000000
    2      -10.746914    -10.746913   1.000000   1.000000
    3       -9.918133     -9.918136   1.000000   1.000000
    4       -5.993119     -5.993118   1.000000   1.000000
    5       -3.708933     -3.708932   1.000000   1.000000
    6       -3.393528     -3.393528   1.000000   1.000000
    7       -2.341965     -2.341964   1.000000   1.000000
    8       -2.225769     -2.225769   1.000000   1.000000
    9       -1.697278     -1.697280   1.000000   1.000000
   10       -1.289721     -1.289721   1.000000   1.000000
   11       -1.067692     -1.067693   1.000000   1.000000
   12       -0.619046     -0.619048   0.998559   0.998559
   13        0.680081      0.680082   0.000000   0.000000
   14        1.491662      1.491706   0.000000   0.000000
   15        1.829634      1.829695   0.000000   0.000000
   16        2.143543      2.143552   0.000000   0.000000
   17        2.508525      2.508525   0.000000   0.000000
   18        2.663009      2.663045   0.000000   0.000000
   19        2.845257      2.845356   0.000000   0.000000
   20        3.401360      3.401370   0.000000   0.000000
   21        3.658188      3.669926   0.000000   0.000000
   22        4.010130      4.014500   0.000000   0.000000
   23        4.241071      4.245514   0.000000   0.000000
   24        4.424928      4.425757   0.000000   0.000000
 
  0.1428571E+00  0.1428571E+00  0.0000000E+00  0.1020408E-01
    1      -11.474739    -11.474739   1.000000   1.000000
    2      -10.466025    -10.466025   1.000000   1.000000
    3       -9.602009     -9.602011   1.000000   1.000000
    4       -5.893638     -5.893637   1.000000   1.000000
    5       -4.843543     -4.843543   1.000000   1.000000
    6       -3.638994     -3.638994   1.000000   1.000000
    7       -3.423740     -3.423739   1.000000   1.000000
    8       -3.037851     -3.037851   1.000000   1.000000
    9       -2.358662     -2.358662   1.000000   1.000000
   10       -1.943437     -1.943437   1.000000   1.000000
   11       -1.364797     -1.364799   1.000000   1.000000
   12       -1.073998     -1.074001   1.000000   1.000000
   13        1.091653      1.091659   0.000000   0.000000
   14        1.478780      1.478809   0.000000   0.000000
   15        1.645433      1.645438   0.000000   0.000000
   16        2.164269      2.164283   0.000000   0.000000
   17        2.288400      2.288407   0.000000   0.000000
   18        3.112972      3.113116   0.000000   0.000000
   19        3.470768      3.470806   0.000000   0.000000
   20        3.667093      3.667304   0.000000   0.000000
   21        3.939999      3.942976   0.000000   0.000000
   22        4.164243      4.173092   0.000000   0.000000
   23        4.750017      4.759710   0.000000   0.000000
   24        4.966192      4.981640   0.000000   0.000000
 
  0.2857143E+00  0.1428571E+00  0.0000000E+00  0.1020408E-01
    1      -10.859790    -10.859790   1.000000   1.000000
    2      -10.087960    -10.087960   1.000000   1.000000
    3       -9.094539     -9.094541   1.000000   1.000000
    4       -6.245609     -6.245608   1.000000   1.000000
    5       -5.839005     -5.839005   1.000000   1.000000
    6       -4.736461     -4.736462   1.000000   1.000000
    7       -4.050364     -4.050363   1.000000   1.000000
    8       -3.657224     -3.657224   1.000000   1.000000
    9       -2.722373     -2.722373   1.000000   1.000000
   10       -2.426966     -2.426965   1.000000   1.000000
   11       -2.102836     -2.102839   1.000000   1.000000
   12       -1.158618     -1.158621   1.000000   1.000000
   13        0.728626      0.728628   0.000000   0.000000
   14        1.045518      1.045519   0.000000   0.000000
   15        1.454723      1.454735   0.000000   0.000000
   16        1.962040      1.962046   0.000000   0.000000
   17        2.650465      2.650468   0.000000   0.000000
   18        3.195978      3.195978   0.000000   0.000000
   19        3.856036      3.856068   0.000000   0.000000
   20        4.127507      4.127641   0.000000   0.000000
   21        4.466987      4.468239   0.000000   0.000000
   22        4.619350      4.620651   0.000000   0.000000
   23        5.255717      5.266920   0.000000   0.000000
   24        5.583769      5.590939   0.000000   0.000000
 
  0.4285714E+00  0.1428571E+00  0.0000000E+00  0.1020408E-01
    1      -10.367109    -10.367109   1.000000   1.000000
    2      -10.030957    -10.030956   1.000000   1.000000
    3       -8.787311     -8.787314   1.000000   1.000000
    4       -6.611827     -6.611826   1.000000   1.000000
    5       -6.254631     -6.254630   1.000000   1.000000
    6       -5.391317     -5.391319   1.000000   1.000000
    7       -4.283079     -4.283078   1.000000   1.000000
    8       -3.425166     -3.425166   1.000000   1.000000
    9       -2.890880     -2.890880   1.000000   1.000000
   10       -2.856013     -2.856012   1.000000   1.000000
   11       -2.360525     -2.360528   1.000000   1.000000
   12       -0.981956     -0.981960   1.000000   1.000000
   13        0.435022      0.435023   0.000000   0.000000
   14        0.577550      0.577552   0.000000   0.000000
   15        1.599790      1.599793   0.000000   0.000000
   16        1.916420      1.916426   0.000000   0.000000
   17        2.414407      2.414408   0.000000   0.000000
   18        3.044067      3.044066   0.000000   0.000000
   19        3.530629      3.530648   0.000000   0.000000
   20        4.291326      4.291327   0.000000   0.000000
   21        5.251878      5.252320   0.000000   0.000000
   22        5.595997      5.597672   0.000000   0.000000
   23        6.168093      6.168870   0.000000   0.000000
   24        6.181531      6.181703   0.000000   0.000000
 
 -0.4285714E+00  0.1428571E+00  0.0000000E+00  0.1020408E-01
    1      -10.859710    -10.859709   1.000000   1.000000
    2      -10.087931    -10.087930   1.000000   1.000000
    3       -9.094438     -9.094440   1.000000   1.000000
    4       -6.245408     -6.245408   1.000000   1.000000
    5       -5.839452     -5.839451   1.000000   1.000000
    6       -4.736313     -4.736314   1.000000   1.000000
    7       -4.050159     -4.050158   1.000000   1.000000
    8       -3.657295     -3.657295   1.000000   1.000000
    9       -2.722828     -2.722828   1.000000   1.000000
   10       -2.427193     -2.427192   1.000000   1.000000
   11       -2.102835     -2.102838   1.000000   1.000000
   12       -1.157830     -1.157833   1.000000   1.000000
   13        0.728868      0.728870   0.000000   0.000000
   14        1.046429      1.046430   0.000000   0.000000
   15        1.453819      1.453831   0.000000   0.000000
   16        1.960957      1.960962   0.000000   0.000000
   17        2.649447      2.649451   0.000000   0.000000
   18        3.196824      3.196824   0.000000   0.000000
   19        3.854977      3.855008   0.000000   0.000000
   20        4.126700      4.126834   0.000000   0.000000
   21        4.466689      4.467939   0.000000   0.000000
   22        4.619812      4.621120   0.000000   0.000000
   23        5.256012      5.267207   0.000000   0.000000
   24        5.583665      5.590818   0.000000   0.000000
 
 -0.2857143E+00  0.1428571E+00  0.0000000E+00  0.1020408E-01
    1      -11.474678    -11.474677   1.000000   1.000000
    2      -10.465987    -10.465986   1.000000   1.000000
    3       -9.601926     -9.601929   1.000000   1.000000
    4       -5.893332     -5.893331   1.000000   1.000000
    5       -4.843997     -4.843996   1.000000   1.000000
    6       -3.638750     -3.638751   1.000000   1.000000
    7       -3.423134     -3.423133   1.000000   1.000000
    8       -3.038148     -3.038148   1.000000   1.000000
    9       -2.359923     -2.359924   1.000000   1.000000
   10       -1.943428     -1.943428   1.000000   1.000000
   11       -1.364712     -1.364714   1.000000   1.000000
   12       -1.072896     -1.072899   1.000000   1.000000
   13        1.090661      1.090667   0.000000   0.000000
   14        1.478701      1.478729   0.000000   0.000000
   15        1.645608      1.645613   0.000000   0.000000
   16        2.163053      2.163066   0.000000   0.000000
   17        2.288611      2.288618   0.000000   0.000000
   18        3.112070      3.112215   0.000000   0.000000
   19        3.472428      3.472466   0.000000   0.000000
   20        3.667031      3.667247   0.000000   0.000000
   21        3.938081      3.941012   0.000000   0.000000
   22        4.163989      4.172870   0.000000   0.000000
   23        4.750080      4.759856   0.000000   0.000000
   24        4.965021      4.979907   0.000000   0.000000
 
 -0.1428571E+00  0.1428571E+00  0.0000000E+00  0.1020408E-01
    1      -11.824065    -11.824064   1.000000   1.000000
    2      -10.746898    -10.746898   1.000000   1.000000
    3       -9.918105     -9.918107   1.000000   1.000000
    4       -5.993019     -5.993018   1.000000   1.000000
    5       -3.709506     -3.709506   1.000000   1.000000
    6       -3.392568     -3.392568   1.000000   1.000000
    7       -2.342127     -2.342126   1.000000   1.000000
    8       -2.226020     -2.226020   1.000000   1.000000
    9       -1.697675     -1.697677   1.000000   1.000000
   10       -1.289805     -1.289805   1.000000   1.000000
   11       -1.067465     -1.067466   1.000000   1.000000
   12       -0.618901     -0.618903   0.998539   0.998540
   13        0.679797      0.679798   0.000000   0.000000
   14        1.491345      1.491389   0.000000   0.000000
   15        1.828682      1.828742   0.000000   0.000000
   16        2.143452      2.143461   0.000000   0.000000
   17        2.509025      2.509025   0.000000   0.000000
   18        2.663419      2.663455   0.000000   0.000000
   19        2.845655      2.845757   0.000000   0.000000
   20        3.401704      3.401715   0.000000   0.000000
   21        3.658219      3.669936   0.000000   0.000000
   22        4.008729      4.013126   0.000000   0.000000
   23        4.241304      4.245712   0.000000   0.000000
   24        4.425672      4.426525   0.000000   0.000000
 
 -0.4336809E-18  0.2857143E+00  0.0000000E+00  0.1020408E-01
    1      -11.333843    -11.333842   1.000000   1.000000
    2      -10.356276    -10.356276   1.000000   1.000000
    3       -9.467708     -9.467710   1.000000   1.000000
    4       -5.893370     -5.893370   1.000000   1.000000
    5       -5.439984     -5.439984   1.000000   1.000000
    6       -4.027366     -4.027367   1.000000   1.000000
    7       -3.766777     -3.766777   1.000000   1.000000
    8       -2.845325     -2.845325   1.000000   1.000000
    9       -2.583348     -2.583348   1.000000   1.000000
   10       -1.760473     -1.760473   1.000000   1.000000
   11       -1.188872     -1.188875   1.000000   1.000000
   12       -1.020068     -1.020071   1.000000   1.000000
   13        0.321042      0.321044   0.000000   0.000000
   14        0.798035      0.798044   0.000000   0.000000
   15        1.531028      1.531036   0.000000   0.000000
   16        2.073807      2.073821   0.000000   0.000000
   17        2.501353      2.501364   0.000000   0.000000
   18        3.128380      3.128397   0.000000   0.000000
   19        3.812586      3.815018   0.000000   0.000000
   20        4.050730      4.050961   0.000000   0.000000
   21        4.402672      4.404819   0.000000   0.000000
   22        4.703360      4.719781   0.000000   0.000000
   23        4.887328      4.891428   0.000000   0.000000
   24        5.297618      5.306091   0.000000   0.000000
 
  0.1428571E+00  0.2857143E+00  0.0000000E+00  0.1020408E-01
    1      -10.893510    -10.893510   1.000000   1.000000
    2      -10.083688    -10.083688   1.000000   1.000000
    3       -9.099975     -9.099977   1.000000   1.000000
    4       -6.295342     -6.295341   1.000000   1.000000
    5       -5.865268     -5.865268   1.000000   1.000000
    6       -4.695734     -4.695735   1.000000   1.000000
    7       -4.087119     -4.087118   1.000000   1.000000
    8       -3.711134     -3.711133   1.000000   1.000000
    9       -2.585337     -2.585336   1.000000   1.000000
   10       -2.539722     -2.539721   1.000000   1.000000
   11       -1.977019     -1.977021   1.000000   1.000000
   12       -1.092394     -1.092398   1.000000   1.000000
   13        0.792683      0.792686   0.000000   0.000000
   14        1.105287      1.105292   0.000000   0.000000
   15        1.464312      1.464315   0.000000   0.000000
   16        2.114296      2.114306   0.000000   0.000000
   17        2.945863      2.945879   0.000000   0.000000
   18        3.317802      3.317802   0.000000   0.000000
   19        3.474224      3.474233   0.000000   0.000000
   20        4.013798      4.014063   0.000000   0.000000
   21        4.443395      4.444427   0.000000   0.000000
   22        4.877328      4.879360   0.000000   0.000000
   23        5.185442      5.192827   0.000000   0.000000
   24        5.406159      5.414699   0.000000   0.000000
 
  0.2857143E+00  0.2857143E+00  0.0000000E+00  0.1020408E-01
    1      -10.344345    -10.344345   1.000000   1.000000
    2       -9.957037     -9.957036   1.000000   1.000000
    3       -8.726880     -8.726882   1.000000   1.000000
    4       -6.555506     -6.555505   1.000000   1.000000
    5       -6.136483     -6.136483   1.000000   1.000000
    6       -5.258277     -5.258278   1.000000   1.000000
    7       -4.870116     -4.870114   1.000000   1.000000
    8       -3.666419     -3.666419   1.000000   1.000000
    9       -3.301431     -3.301431   1.000000   1.000000
   10       -2.992635     -2.992637   1.000000   1.000000
   11       -2.703495     -2.703494   1.000000   1.000000
   12       -0.853216     -0.853220   1.000000   1.000000
   13        0.593057      0.593059   0.000000   0.000000
   14        0.934987      0.934989   0.000000   0.000000
   15        1.776691      1.776697   0.000000   0.000000
   16        3.093272      3.093274   0.000000   0.000000
   17        3.403109      3.403113   0.000000   0.000000
   18        3.619340      3.619343   0.000000   0.000000
   19        3.882257      3.882283   0.000000   0.000000
   20        4.608579      4.608600   0.000000   0.000000
   21        5.097635      5.097699   0.000000   0.000000
   22        5.419740      5.419858   0.000000   0.000000
   23        5.530058      5.531528   0.000000   0.000000
   24        5.765338      5.766435   0.000000   0.000000
 
  0.4285714E+00  0.2857143E+00  0.0000000E+00  0.1020408E-01
    1      -10.344211    -10.344211   1.000000   1.000000
    2       -9.957048     -9.957047   1.000000   1.000000
    3       -8.726740     -8.726742   1.000000   1.000000
    4       -6.555133     -6.555132   1.000000   1.000000
    5       -6.137450     -6.137450   1.000000   1.000000
    6       -5.257506     -5.257507   1.000000   1.000000
    7       -4.870109     -4.870107   1.000000   1.000000
    8       -3.666993     -3.666993   1.000000   1.000000
    9       -3.301526     -3.301526   1.000000   1.000000
   10       -2.992543     -2.992545   1.000000   1.000000
   11       -2.703780     -2.703779   1.000000   1.000000
   12       -0.852429     -0.852433   1.000000   1.000000
   13        0.595521      0.595522   0.000000   0.000000
   14        0.932143      0.932145   0.000000   0.000000
   15        1.775843      1.775849   0.000000   0.000000
   16        3.092921      3.092924   0.000000   0.000000
   17        3.404999      3.405002   0.000000   0.000000
   18        3.617049      3.617052   0.000000   0.000000
   19        3.882071      3.882097   0.000000   0.000000
   20        4.607265      4.607286   0.000000   0.000000
   21        5.099491      5.099556   0.000000   0.000000
   22        5.419582      5.419699   0.000000   0.000000
   23        5.528624      5.530084   0.000000   0.000000
   24        5.766092      5.767187   0.000000   0.000000
 
 -0.4285714E+00  0.2857143E+00  0.0000000E+00  0.1020408E-01
    1      -10.893355    -10.893355   1.000000   1.000000
    2      -10.083624    -10.083624   1.000000   1.000000
    3       -9.099746     -9.099749   1.000000   1.000000
    4       -6.294883     -6.294882   1.000000   1.000000
    5       -5.865962     -5.865962   1.000000   1.000000
    6       -4.694894     -4.694895   1.000000   1.000000
    7       -4.087353     -4.087352   1.000000   1.000000
    8       -3.711449     -3.711449   1.000000   1.000000
    9       -2.586181     -2.586180   1.000000   1.000000
   10       -2.541030     -2.541030   1.000000   1.000000
   11       -1.976561     -1.976564   1.000000   1.000000
   12       -1.090433     -1.090436   1.000000   1.000000
   13        0.793676      0.793679   0.000000   0.000000
   14        1.104029      1.104033   0.000000   0.000000
   15        1.461750      1.461754   0.000000   0.000000
   16        2.114891      2.114900   0.000000   0.000000
   17        2.944341      2.944357   0.000000   0.000000
   18        3.318556      3.318557   0.000000   0.000000
   19        3.473829      3.473838   0.000000   0.000000
   20        4.010035      4.010298   0.000000   0.000000
   21        4.446396      4.447432   0.000000   0.000000
   22        4.876578      4.878626   0.000000   0.000000
   23        5.185891      5.193251   0.000000   0.000000
   24        5.407268      5.415822   0.000000   0.000000
 
 -0.2857143E+00  0.2857143E+00  0.0000000E+00  0.1020408E-01
    1      -11.333754    -11.333753   1.000000   1.000000
    2      -10.356225    -10.356224   1.000000   1.000000
    3       -9.467576     -9.467579   1.000000   1.000000
    4       -5.892658     -5.892657   1.000000   1.000000
    5       -5.440564     -5.440563   1.000000   1.000000
    6       -4.027239     -4.027240   1.000000   1.000000
    7       -3.766065     -3.766065   1.000000   1.000000
    8       -2.845798     -2.845798   1.000000   1.000000
    9       -2.584977     -2.584977   1.000000   1.000000
   10       -1.760880     -1.760879   1.000000   1.000000
   11       -1.187873     -1.187875   1.000000   1.000000
   12       -1.019506     -1.019509   1.000000   1.000000
   13        0.320460      0.320463   0.000000   0.000000
   14        0.797205      0.797213   0.000000   0.000000
   15        1.530431      1.530439   0.000000   0.000000
   16        2.073832      2.073845   0.000000   0.000000
   17        2.501386      2.501397   0.000000   0.000000
   18        3.128963      3.128980   0.000000   0.000000
   19        3.810322      3.812739   0.000000   0.000000
   20        4.050054      4.050278   0.000000   0.000000
   21        4.403045      4.405213   0.000000   0.000000
   22        4.702691      4.719160   0.000000   0.000000
   23        4.889450      4.893491   0.000000   0.000000
   24        5.298551      5.307021   0.000000   0.000000
 
 -0.1428571E+00  0.2857143E+00  0.0000000E+00  0.1020408E-01
    1      -11.494555    -11.494555   1.000000   1.000000
    2      -10.475938    -10.475937   1.000000   1.000000
    3       -9.609957     -9.609959   1.000000   1.000000
    4       -5.841713     -5.841713   1.000000   1.000000
    5       -4.915113     -4.915112   1.000000   1.000000
    6       -3.824674     -3.824674   1.000000   1.000000
    7       -3.398978     -3.398978   1.000000   1.000000
    8       -2.783309     -2.783308   1.000000   1.000000
    9       -2.575519     -2.575519   1.000000   1.000000
   10       -1.969323     -1.969323   1.000000   1.000000
   11       -1.362903     -1.362906   1.000000   1.000000