       N       E                     dE             d eps       ncg     rms          rms(c)
DAV:   1     0.122474448181E+03    0.12247E+03   -0.78339E+03  9408   0.859E+02
DAV:   2    -0.126230458582E+02   -0.13510E+03   -0.12932E+03 12728   0.133E+02
DAV:   3    -0.240467199770E+02   -0.11424E+02   -0.11238E+02 12424   0.405E+01
DAV:   4    -0.244551591858E+02   -0.40844E+00   -0.40812E+00 13112   0.876E+00
DAV:   5    -0.244693578097E+02   -0.14199E-01   -0.14198E-01 14616   0.176E+00    0.770E+00
DAV:   6    -0.213736808800E+02    0.30957E+01   -0.10610E+01 11560   0.115E+01    0.527E+00
DAV:   7    -0.216379405399E+02   -0.26426E+00   -0.10746E+01 12720   0.932E+00    0.487E+00
DAV:   8    -0.203751785847E+02    0.12628E+01   -0.29001E+00 11984   0.745E+00    0.331E+00
DAV:   9    -0.204807495333E+02   -0.10557E+00   -0.56815E-01 12416   0.354E+00    0.261E+00
DAV:  10    -0.212360481192E+02   -0.75530E+00   -0.17598E-01 12176   0.207E+00    0.224E+00
DAV:  11    -0.226540977248E+02   -0.14180E+01   -0.73876E-01 11128   0.366E+00    0.151E+00
DAV:  12    -0.242126797313E+02   -0.15586E+01   -0.16536E+00 10584   0.435E+00    0.852E-01
DAV:  13    -0.246649956093E+02   -0.45232E+00   -0.40378E-01 10352   0.208E+00    0.557E-01
DAV:  14    -0.249084870776E+02   -0.24349E+00   -0.27456E-01 11112   0.160E+00    0.339E-01
DAV:  15    -0.250205303356E+02   -0.11204E+00   -0.41953E-02 11672   0.709E-01    0.219E-01
DAV:  16    -0.251303074959E+02   -0.10978E+00   -0.17752E-02 10696   0.402E-01    0.145E-01
DAV:  17    -0.252018608538E+02   -0.71553E-01   -0.10693E-02 10992   0.305E-01    0.837E-02
DAV:  18    -0.252200486695E+02   -0.18188E-01   -0.17845E-03 12320   0.151E-01    0.549E-02
DAV:  19    -0.252306793822E+02   -0.10631E-01   -0.87607E-04 12016   0.111E-01    0.388E-02
DAV:  20    -0.252420797110E+02   -0.11400E-01   -0.58817E-04 11560   0.841E-02    0.264E-02
DAV:  21    -0.252507994401E+02   -0.87197E-02   -0.23886E-04 11608   0.570E-02    0.185E-02
DAV:  22    -0.252590975990E+02   -0.82982E-02   -0.17546E-04 12088   0.384E-02    0.111E-02
DAV:  23    -0.252625484048E+02   -0.34508E-02   -0.57174E-05 12424   0.227E-02    0.734E-03
DAV:  24    -0.252641963693E+02   -0.16480E-02   -0.27183E-05 11856   0.141E-02    0.504E-03
DAV:  25    -0.252650301500E+02   -0.83378E-03   -0.13096E-05 11752   0.102E-02    0.317E-03
DAV:  26    -0.252652794323E+02   -0.24928E-03   -0.21309E-06 12544   0.533E-03    0.209E-03
DAV:  27    -0.252654256980E+02   -0.14627E-03   -0.10764E-06 12416   0.447E-03    0.122E-03
DAV:  28    -0.252654913216E+02   -0.65624E-04   -0.87191E-07 10680   0.384E-03    0.850E-04
DAV:  29    -0.252655071654E+02   -0.15844E-04   -0.71985E-07 11424   0.268E-03    0.786E-04
DAV:  30    -0.252655123847E+02   -0.52192E-05   -0.26322E-07 10992   0.195E-03    0.400E-04
DAV:  31    -0.252655146415E+02   -0.22568E-05   -0.96524E-08 10656   0.112E-03    0.159E-04
DAV:  32    -0.252655152907E+02   -0.64930E-06   -0.14189E-08 10200   0.582E-04    0.103E-04
DAV:  33    -0.252655157367E+02   -0.44598E-06   -0.14895E-08  9400   0.436E-04    0.449E-05
DAV:  34    -0.252655158246E+02   -0.87829E-07   -0.30163E-09  9392   0.292E-04
   1 F= -.26763711E+02 E0= -.26763681E+02  d E =-.267637E+02  mag=     0.0000
