 vasp.5.4.4.18Apr17-6-g9f103f2a35 (build Dec 09 2020 13:45:19) complex          
  
 executed on             LinuxIFC date 2021.04.07  23:40:01
 running on   64 total cores
 distrk:  each k-point on   64 cores,    1 groups
 distr:  one band on NCORES_PER_BAND=   8 cores,    8 groups


--------------------------------------------------------------------------------------------------------


 INCAR:
 POTCAR:    PAW_PBE Al 04Jan2001                  
 POTCAR:    PAW_PBE Sb 06Sep2000                  
 POTCAR:    PAW_PBE Al 04Jan2001                  
   SHA256 =  17880443556af62b473fe41b62a467bd001ad55d2cabe504a3f22e34d4e9db96 Al
   COPYR  = (c) Copyright 04Jan2001 Georg Kresse                                
   COPYR  = This file is part of the software VASP. Any use, copying, and all ot
   COPYR  = If you do not have a valid VASP license, you may not use, copy or di
   VRHFIN =Al: s2p1                                                             
   LEXCH  = PE                                                                  
   EATOM  =    53.5387 eV,    3.9350 Ry                                         
                                                                                
   TITEL  = PAW_PBE Al 04Jan2001                                                
   LULTRA =        F    use ultrasoft PP ?                                      
   IUNSCR =        1    unscreen: 0-lin 1-nonlin 2-no                           
   RPACOR =    1.500    partial core radius                                     
   POMASS =   26.981; ZVAL   =    3.000    mass and valenz                      
   RCORE  =    1.900    outmost cutoff radius                                   
   RWIGS  =    2.650; RWIGS  =    1.402    wigner-seitz radius (au A)           
   ENMAX  =  240.300; ENMIN  =  180.225 eV                                      
   ICORE  =        2    local potential                                         
   LCOR   =        T    correct aug charges                                     
   LPAW   =        T    paw PP                                                  
   EAUG   =  291.052                                                            
   DEXC   =    0.000                                                            
   RMAX   =    1.939    core radius for proj-oper                               
   RAUG   =    1.300    factor for augmentation sphere                          
   RDEP   =    1.966    radius for radial grids                                 
   RDEPT  =    1.856    core radius for aug-charge                              
                                                                                
   Atomic configuration                                                         
    6 entries                                                                   
     n  l   j            E        occ.                                          
     1  0  0.50     -1511.1048   2.0000                                         
     2  0  0.50      -108.1629   2.0000                                         
     2  1  1.50       -69.6402   6.0000                                         
     3  0  0.50        -7.7528   2.0000                                         
     3  1  1.50        -2.7121   1.0000                                         
     3  2  2.50        -2.7212   0.0000                                         
   Description                                                                  
     l       E           TYP  RCUT    TYP  RCUT                                 
     0     -7.7528455     23  1.900                                             
     0     -3.3096929     23  1.900                                             
     1     -2.7120682     23  1.900                                             
     1     13.6058260     23  1.900                                             
     2     -2.7211652      7  1.900                                             
  local pseudopotential read in
  partial core-charges read in
  partial kinetic energy density read in
  atomic valenz-charges read in
  non local Contribution for L=           0  read in
    real space projection operators read in
  non local Contribution for L=           0  read in
    real space projection operators read in
  non local Contribution for L=           1  read in
    real space projection operators read in
  non local Contribution for L=           1  read in
    real space projection operators read in
    PAW grid and wavefunctions read in
 
   number of l-projection  operators is LMAX  =           4
   number of lm-projection operators is LMMAX =           8
 
 POTCAR:    PAW_PBE Sb 06Sep2000                  
   SHA256 =  8a1325a3afd8ca988779475cff04188eb880a428d1acb53275fe456fa3b784fc Sb
   COPYR  = (c) Copyright 06Sep2000 Georg Kresse                                
   COPYR  = This file is part of the software VASP. Any use, copying, and all ot
   COPYR  = If you do not have a valid VASP license, you may not use, copy or di
   VRHFIN =Sb: s2p3                                                             
   LEXCH  = PE                                                                  
   EATOM  =   149.9515 eV,   11.0211 Ry                                         
                                                                                
   TITEL  = PAW_PBE Sb 06Sep2000                                                
   LULTRA =        F    use ultrasoft PP ?                                      
   IUNSCR =        1    unscreen: 0-lin 1-nonlin 2-no                           
   RPACOR =    2.200    partial core radius                                     
   POMASS =  121.750; ZVAL   =    5.000    mass and valenz                      
   RCORE  =    2.300    outmost cutoff radius                                   
   RWIGS  =    2.980; RWIGS  =    1.577    wigner-seitz radius (au A)           
   ENMAX  =  172.069; ENMIN  =  129.052 eV                                      
   ICORE  =        3    local potential                                         
   LCOR   =        T    correct aug charges                                     
   LPAW   =        T    paw PP                                                  
   EAUG   =  380.513                                                            
   DEXC   =    0.000                                                            
   RMAX   =    2.346    core radius for proj-oper                               
   RAUG   =    1.300    factor for augmentation sphere                          
   RDEP   =    2.360    radius for radial grids                                 
   RDEPT  =    2.192    core radius for aug-charge                              
                                                                                
   Atomic configuration                                                         
   13 entries                                                                   
     n  l   j            E        occ.                                          
     1  0  0.50    -30298.2797   2.0000                                         
     2  0  0.50     -4610.2252   2.0000                                         
     2  1  1.50     -4138.3407   6.0000                                         
     3  0  0.50      -903.8815   2.0000                                         
     3  1  1.50      -750.1337   6.0000                                         
     3  2  2.50      -515.7092  10.0000                                         
     4  0  0.50      -148.8034   2.0000                                         
     4  1  1.50      -101.7581   6.0000                                         
     4  2  2.50       -33.5048  10.0000                                         
     5  0  0.50       -12.8298   2.0000                                         
     5  1  0.50        -4.8276   3.0000                                         
     5  2  1.50        -4.0817   0.0000                                         
     4  3  2.50        -4.0817   0.0000                                         
   Description                                                                  
     l       E           TYP  RCUT    TYP  RCUT                                 
     0    -12.8297861     23  2.300                                             
     0     13.6058260     23  2.300                                             
     1     -4.8275512     23  2.300                                             
     1     -0.7245443     23  2.300                                             
     2     -4.0817478     23  2.300                                             
     3     -1.3605826     23  2.300                                             
  local pseudopotential read in
  partial core-charges read in
  partial kinetic energy density read in
  atomic valenz-charges read in
  non local Contribution for L=           0  read in
    real space projection operators read in
  non local Contribution for L=           0  read in
    real space projection operators read in
  non local Contribution for L=           1  read in
    real space projection operators read in
  non local Contribution for L=           1  read in
    real space projection operators read in
  non local Contribution for L=           2  read in
    real space projection operators read in
    PAW grid and wavefunctions read in
 
   number of l-projection  operators is LMAX  =           5
   number of lm-projection operators is LMMAX =          13
 

 ----------------------------------------------------------------------------- 
|                                                                             |
|  ADVICE TO THIS USER RUNNING 'VASP/VAMP'   (HEAR YOUR MASTER'S VOICE ...):  |
|                                                                             |
|      You enforced a specific xc-type in the INCAR file,                     |
|      a different type was found on the POTCAR file                          |
|          I HOPE YOU KNOW, WHAT YOU ARE  DOING                               |
|                                                                             |
 ----------------------------------------------------------------------------- 

  PAW_PBE Al 04Jan2001                  :
 energy of atom  1       EATOM=  -53.5387
 kinetic energy error for atom=    0.0001 (will be added to EATOM!!)
  PAW_PBE Sb 06Sep2000                  :
 energy of atom  2       EATOM= -149.9515
 kinetic energy error for atom=    0.0002 (will be added to EATOM!!)
 
 
 POSCAR: image0                                  
  positions in direct lattice
  velocities in cartesian coordinates
 exchange correlation table for  LEXCH =       14
   RHO(1)=    0.500       N(1)  =     2000
   RHO(2)=  100.500       N(2)  =     4000
 


--------------------------------------------------------------------------------------------------------


 ion  position               nearest neighbor table
   1  0.352  0.676  0.101-   5 2.66   5 2.68   5 2.68   4 2.87   3 2.89   3 2.89   3 3.34
   2  0.413  0.706  0.324-   6 2.61   6 2.61   6 2.61   4 2.79
   3  0.575  0.288  0.171-   4 2.65   4 2.70   4 2.70   5 2.83   1 2.89   1 2.89   1 3.34
   4  0.237  0.619  0.215-   3 2.65   3 2.70   3 2.70   2 2.79   1 2.87
   5  0.685  0.343  0.059-   1 2.66   1 2.68   1 2.68   3 2.83
   6  0.739  0.369  0.359-   2 2.61   2 2.61   2 2.61
 

IMPORTANT INFORMATION: All symmetrisations will be switched off!
NOSYMM: (Re-)initialisation of all symmetry stuff for point group C_1.

 
 

Automatic generation of k-mesh.
 generate k-points for:    7    7    2
Space group operators:
 irot       det(A)        alpha          n_x          n_y          n_z        tau_x        tau_y        tau_z
    1     1.000000     0.000001     1.000000     0.000000     0.000000     0.000000     0.000000     0.000000
 
 Subroutine IBZKPT returns following result:
 ===========================================
 
 Found     98 irreducible k-points:
 
 Following reciprocal coordinates:
            Coordinates               Weight
  0.000000  0.000000  0.000000      1.000000
  0.142857 -0.000000  0.000000      1.000000
  0.285714  0.000000  0.000000      1.000000
  0.428571  0.000000  0.000000      1.000000
 -0.428571 -0.000000  0.000000      1.000000
 -0.285714  0.000000  0.000000      1.000000
 -0.142857  0.000000  0.000000      1.000000
  0.000000  0.142857  0.000000      1.000000
  0.142857  0.142857  0.000000      1.000000
  0.285714  0.142857  0.000000      1.000000
  0.428571  0.142857  0.000000      1.000000
 -0.428571  0.142857  0.000000      1.000000
 -0.285714  0.142857  0.000000      1.000000
 -0.142857  0.142857  0.000000      1.000000
 -0.000000  0.285714  0.000000      1.000000
  0.142857  0.285714  0.000000      1.000000
  0.285714  0.285714  0.000000      1.000000
  0.428571  0.285714  0.000000      1.000000
 -0.428571  0.285714  0.000000      1.000000
 -0.285714  0.285714  0.000000      1.000000
 -0.142857  0.285714  0.000000      1.000000
  0.000000  0.428571  0.000000      1.000000
  0.142857  0.428571  0.000000      1.000000
  0.285714  0.428571  0.000000      1.000000
  0.428571  0.428571  0.000000      1.000000
 -0.428571  0.428571  0.000000      1.000000
 -0.285714  0.428571  0.000000      1.000000
 -0.142857  0.428571  0.000000      1.000000
  0.000000 -0.428571  0.000000      1.000000
  0.142857 -0.428571  0.000000      1.000000
  0.285714 -0.428571  0.000000      1.000000
  0.428571 -0.428571  0.000000      1.000000
 -0.428571 -0.428571  0.000000      1.000000
 -0.285714 -0.428571  0.000000      1.000000
 -0.142857 -0.428571  0.000000      1.000000
  0.000000 -0.285714  0.000000      1.000000
  0.142857 -0.285714  0.000000      1.000000
  0.285714 -0.285714  0.000000      1.000000
  0.428571 -0.285714  0.000000      1.000000
 -0.428571 -0.285714  0.000000      1.000000
 -0.285714 -0.285714  0.000000      1.000000
 -0.142857 -0.285714  0.000000      1.000000
 -0.000000 -0.142857  0.000000      1.000000
  0.142857 -0.142857  0.000000      1.000000
  0.285714 -0.142857  0.000000      1.000000
  0.428571 -0.142857  0.000000      1.000000
 -0.428571 -0.142857  0.000000      1.000000
 -0.285714 -0.142857  0.000000      1.000000
 -0.142857 -0.142857  0.000000      1.000000
  0.000000  0.000000  0.500000      1.000000
  0.142857 -0.000000  0.500000      1.000000
  0.285714  0.000000  0.500000      1.000000
  0.428571  0.000000  0.500000      1.000000
 -0.428571 -0.000000  0.500000      1.000000
 -0.285714  0.000000  0.500000      1.000000
 -0.142857  0.000000  0.500000      1.000000
  0.000000  0.142857  0.500000      1.000000
  0.142857  0.142857  0.500000      1.000000
  0.285714  0.142857  0.500000      1.000000
  0.428571  0.142857  0.500000      1.000000
 -0.428571  0.142857  0.500000      1.000000
 -0.285714  0.142857  0.500000      1.000000
 -0.142857  0.142857  0.500000      1.000000
 -0.000000  0.285714  0.500000      1.000000
  0.142857  0.285714  0.500000      1.000000
  0.285714  0.285714  0.500000      1.000000
  0.428571  0.285714  0.500000      1.000000
 -0.428571  0.285714  0.500000      1.000000
 -0.285714  0.285714  0.500000      1.000000
 -0.142857  0.285714  0.500000      1.000000
  0.000000  0.428571  0.500000      1.000000
  0.142857  0.428571  0.500000      1.000000
  0.285714  0.428571  0.500000      1.000000
  0.428571  0.428571  0.500000      1.000000
 -0.428571  0.428571  0.500000      1.000000
 -0.285714  0.428571  0.500000      1.000000
 -0.142857  0.428571  0.500000      1.000000
  0.000000 -0.428571  0.500000      1.000000
  0.142857 -0.428571  0.500000      1.000000
  0.285714 -0.428571  0.500000      1.000000
  0.428571 -0.428571  0.500000      1.000000
 -0.428571 -0.428571  0.500000      1.000000
 -0.285714 -0.428571  0.500000      1.000000
 -0.142857 -0.428571  0.500000      1.000000
  0.000000 -0.285714  0.500000      1.000000
  0.142857 -0.285714  0.500000      1.000000
  0.285714 -0.285714  0.500000      1.000000
  0.428571 -0.285714  0.500000      1.000000
 -0.428571 -0.285714  0.500000      1.000000
 -0.285714 -0.285714  0.500000      1.000000
 -0.142857 -0.285714  0.500000      1.000000
 -0.000000 -0.142857  0.500000      1.000000
  0.142857 -0.142857  0.500000      1.000000
  0.285714 -0.142857  0.500000      1.000000
  0.428571 -0.142857  0.500000      1.000000
 -0.428571 -0.142857  0.500000      1.000000
 -0.285714 -0.142857  0.500000      1.000000
 -0.142857 -0.142857  0.500000      1.000000
 
 Following cartesian coordinates:
            Coordinates               Weight
  0.000000  0.000000  0.000000      1.000000
  0.033832  0.019532  0.000000      1.000000
  0.067664  0.039064  0.000000      1.000000
  0.101497  0.058595  0.000000      1.000000
 -0.101497 -0.058595  0.000000      1.000000
 -0.067664 -0.039064  0.000000      1.000000
 -0.033832 -0.019532  0.000000      1.000000
  0.000276  0.038586  0.000000      1.000000
  0.034108  0.058117  0.000000      1.000000
  0.067941  0.077649  0.000000      1.000000
  0.101773  0.097181  0.000000      1.000000
 -0.101221 -0.020010  0.000000      1.000000
 -0.067388 -0.000478  0.000000      1.000000
 -0.033556  0.019054  0.000000      1.000000
  0.000552  0.077171  0.000000      1.000000
  0.034385  0.096703  0.000000      1.000000
  0.068217  0.116235  0.000000      1.000000
  0.102049  0.135767  0.000000      1.000000
 -0.100944  0.018576  0.000000      1.000000
 -0.067112  0.038108  0.000000      1.000000
 -0.033280  0.057640  0.000000      1.000000
  0.000828  0.115757  0.000000      1.000000
  0.034661  0.135289  0.000000      1.000000
  0.068493  0.154821  0.000000      1.000000
  0.102325  0.174352  0.000000      1.000000
 -0.100668  0.057162  0.000000      1.000000
 -0.066836  0.076694  0.000000      1.000000
 -0.033004  0.096225  0.000000      1.000000
 -0.000828 -0.115757  0.000000      1.000000
  0.033004 -0.096225  0.000000      1.000000
  0.066836 -0.076694  0.000000      1.000000
  0.100668 -0.057162  0.000000      1.000000
 -0.102325 -0.174352  0.000000      1.000000
 -0.068493 -0.154821  0.000000      1.000000
 -0.034661 -0.135289  0.000000      1.000000
 -0.000552 -0.077171  0.000000      1.000000
  0.033280 -0.057640  0.000000      1.000000
  0.067112 -0.038108  0.000000      1.000000
  0.100944 -0.018576  0.000000      1.000000
 -0.102049 -0.135767  0.000000      1.000000
 -0.068217 -0.116235  0.000000      1.000000
 -0.034385 -0.096703  0.000000      1.000000
 -0.000276 -0.038586  0.000000      1.000000
  0.033556 -0.019054  0.000000      1.000000
  0.067388  0.000478  0.000000      1.000000
  0.101221  0.020010  0.000000      1.000000
 -0.101773 -0.097181  0.000000      1.000000
 -0.067941 -0.077649  0.000000      1.000000
 -0.034108 -0.058117  0.000000      1.000000
  0.000000  0.000000  0.020048      1.000000
  0.033832  0.019532  0.020048      1.000000
  0.067664  0.039064  0.020048      1.000000
  0.101497  0.058595  0.020048      1.000000
 -0.101497 -0.058595  0.020048      1.000000
 -0.067664 -0.039064  0.020048      1.000000
 -0.033832 -0.019532  0.020048      1.000000
  0.000276  0.038586  0.020048      1.000000
  0.034108  0.058117  0.020048      1.000000
  0.067941  0.077649  0.020048      1.000000
  0.101773  0.097181  0.020048      1.000000
 -0.101221 -0.020010  0.020048      1.000000
 -0.067388 -0.000478  0.020048      1.000000
 -0.033556  0.019054  0.020048      1.000000
  0.000552  0.077171  0.020048      1.000000
  0.034385  0.096703  0.020048      1.000000
  0.068217  0.116235  0.020048      1.000000
  0.102049  0.135767  0.020048      1.000000
 -0.100944  0.018576  0.020048      1.000000
 -0.067112  0.038108  0.020048      1.000000
 -0.033280  0.057640  0.020048      1.000000
  0.000828  0.115757  0.020048      1.000000
  0.034661  0.135289  0.020048      1.000000
  0.068493  0.154821  0.020048      1.000000
  0.102325  0.174352  0.020048      1.000000
 -0.100668  0.057162  0.020048      1.000000
 -0.066836  0.076694  0.020048      1.000000
 -0.033004  0.096225  0.020048      1.000000
 -0.000828 -0.115757  0.020048      1.000000
  0.033004 -0.096225  0.020048      1.000000
  0.066836 -0.076694  0.020048      1.000000
  0.100668 -0.057162  0.020048      1.000000
 -0.102325 -0.174352  0.020048      1.000000
 -0.068493 -0.154821  0.020048      1.000000
 -0.034661 -0.135289  0.020048      1.000000
 -0.000552 -0.077171  0.020048      1.000000
  0.033280 -0.057640  0.020048      1.000000
  0.067112 -0.038108  0.020048      1.000000
  0.100944 -0.018576  0.020048      1.000000
 -0.102049 -0.135767  0.020048      1.000000
 -0.068217 -0.116235  0.020048      1.000000
 -0.034385 -0.096703  0.020048      1.000000
 -0.000276 -0.038586  0.020048      1.000000
  0.033556 -0.019054  0.020048      1.000000
  0.067388  0.000478  0.020048      1.000000
  0.101221  0.020010  0.020048      1.000000
 -0.101773 -0.097181  0.020048      1.000000
 -0.067941 -0.077649  0.020048      1.000000
 -0.034108 -0.058117  0.020048      1.000000
 


--------------------------------------------------------------------------------------------------------




 Dimension of arrays:
   k-points           NKPTS =     98   k-points in BZ     NKDIM =     98   number of bands    NBANDS=     24
   number of dos      NEDOS =    301   number of ions     NIONS =      6
   non local maximal  LDIM  =      5   non local SUM 2l+1 LMDIM =     13
   total plane-waves  NPLWV = 345600
   max r-space proj   IRMAX =      1   max aug-charges    IRDMAX=  49183
   dimension x,y,z NGX =    40 NGY =   40 NGZ =  216
   dimension x,y,z NGXF=    80 NGYF=   80 NGZF=  432
   support grid    NGXF=    80 NGYF=   80 NGZF=  432
   ions per type =               3   3
   NGX,Y,Z   is equivalent  to a cutoff of  15.68, 15.49, 14.40 a.u.
   NGXF,Y,Z  is equivalent  to a cutoff of  31.37, 30.98, 28.80 a.u.

 SYSTEM =  unknown system                          
 POSCAR =  image0                                  

 Startparameter for this run:
   NWRITE =      2    write-flag & timer
   PREC   = accura    normal or accurate (medium, high low for compatibility)
   ISTART =      0    job   : 0-new  1-cont  2-samecut
   ICHARG =      2    charge: 1-file 2-atom 10-const
   ISPIN  =      2    spin polarized calculation?
   LNONCOLLINEAR =      F non collinear calculations
   LSORBIT =      F    spin-orbit coupling
   INIWAV =      1    electr: 0-lowe 1-rand  2-diag
   LASPH  =      F    aspherical Exc in radial PAW
   METAGGA=      F    non-selfconsistent MetaGGA calc.

 Electronic Relaxation 1
   ENCUT  =  700.0 eV  51.45 Ry    7.17 a.u.   9.15  9.26 53.80*2*pi/ulx,y,z
   ENINI  =  700.0     initial cutoff
   ENAUG  =  380.5 eV  augmentation charge cutoff
   NELM   =    100;   NELMIN=  4; NELMDL= -5     # of ELM steps 
   EDIFF  = 0.1E-06   stopping-criterion for ELM
   LREAL  =      F    real-space projection
   NLSPLINE    = F    spline interpolate recip. space projectors
   LCOMPAT=      F    compatible to vasp.4.4
   GGA_COMPAT  = T    GGA compatible to vasp.4.4-vasp.4.6
   LMAXPAW     = -100 max onsite density
   LMAXMIX     =    2 max onsite mixed and CHGCAR
   VOSKOWN=      0    Vosko Wilk Nusair interpolation
   ROPT   =    0.00000   0.00000
 Ionic relaxation
   EDIFFG = -.1E-02   stopping-criterion for IOM
   NSW    =    100    number of steps for IOM
   NBLOCK =      1;   KBLOCK =    100    inner block; outer block 
   IBRION =      2    ionic relax: 0-MD 1-quasi-New 2-CG
   NFREE  =      1    steps in history (QN), initial steepest desc. (CG)
   ISIF   =      3    stress and relaxation
   IWAVPR =     11    prediction:  0-non 1-charg 2-wave 3-comb
   ISYM   =     -1    0-nonsym 1-usesym 2-fastsym
   LCORR  =      T    Harris-Foulkes like correction to forces

   POTIM  = 0.2000    time-step for ionic-motion
   TEIN   =    0.0    initial temperature
   TEBEG  =    0.0;   TEEND  =   0.0 temperature during run
   SMASS  =  -3.00    Nose mass-parameter (am)
   estimated Nose-frequenzy (Omega)   =  0.10E-29 period in steps =****** mass=  -0.411E-27a.u.
   SCALEE = 1.0000    scale energy and forces
   NPACO  =    256;   APACO  = 16.0  distance and # of slots for P.C.
   PSTRESS=    0.0 pullay stress

  Mass of Ions in am
   POMASS =  26.98121.75
  Ionic Valenz
   ZVAL   =   3.00  5.00
  Atomic Wigner-Seitz radii
   RWIGS  =  -1.00 -1.00
  virtual crystal weights 
   VCA    =   1.00  1.00
   NELECT =      24.0000    total number of electrons
   NUPDOWN=      -1.0000    fix difference up-down

 DOS related values:
   EMIN   =  10.00;   EMAX   =-10.00  energy-range for DOS
   EFERMI =   0.00
   ISMEAR =     0;   SIGMA  =   0.05  broadening in eV -4-tet -1-fermi 0-gaus

 Electronic relaxation 2 (details)
   IALGO  =     38    algorithm
   LDIAG  =      T    sub-space diagonalisation (order eigenvalues)
   LSUBROT=      F    optimize rotation matrix (better conditioning)
   TURBO    =      0    0=normal 1=particle mesh
   IRESTART =      0    0=no restart 2=restart with 2 vectors
   NREBOOT  =      0    no. of reboots
   NMIN     =      0    reboot dimension
   EREF     =   0.00    reference energy to select bands
   IMIX   =      4    mixing-type and parameters
     AMIX     =   0.40;   BMIX     =  1.00
     AMIX_MAG =   1.60;   BMIX_MAG =  1.00
     AMIN     =   0.10
     WC   =   100.;   INIMIX=   1;  MIXPRE=   1;  MAXMIX= -45

 Intra band minimization:
   WEIMIN = 0.0010     energy-eigenvalue tresh-hold
   EBREAK =  0.10E-08  absolut break condition
   DEPER  =   0.30     relativ break condition  

   TIME   =   0.40     timestep for ELM

  volume/ion in A,a.u.               =      65.25       440.33
  Fermi-wavevector in a.u.,A,eV,Ry     =   0.645506  1.219829  5.669242  0.416678
  Thomas-Fermi vector in A             =   1.713184
 
 Write flags
   LWAVE        =      F    write WAVECAR
   LDOWNSAMPLE  =      F    k-point downsampling of WAVECAR
   LCHARG       =      T    write CHGCAR
   LVTOT        =      F    write LOCPOT, total local potential
   LVHAR        =      F    write LOCPOT, Hartree potential only
   LELF         =      F    write electronic localiz. function (ELF)
   LORBIT       =      0    0 simple, 1 ext, 2 COOP (PROOUT), +10 PAW based schemes


 Dipole corrections
   LMONO  =      F    monopole corrections only (constant potential shift)
   LDIPOL =      T    correct potential (dipole corrections)
   IDIPOL =      3    1-x, 2-y, 3-z, 4-all directions 
   EPSILON=  1.0000000 bulk dielectric constant

 Exchange correlation treatment:
   GGA     =    PS    GGA type
   LEXCH   =    14    internal setting for exchange type
   VOSKOWN=      0    Vosko Wilk Nusair interpolation
   LHFCALC =     F    Hartree Fock is set to
   LHFONE  =     F    Hartree Fock one center treatment
   AEXX    =    0.0000 exact exchange contribution

 Linear response parameters
   LEPSILON=     F    determine dielectric tensor
   LRPA    =     F    only Hartree local field effects (RPA)
   LNABLA  =     F    use nabla operator in PAW spheres
   LVEL    =     F    velocity operator in full k-point grid
   LINTERFAST=   F  fast interpolation
   KINTER  =     0    interpolate to denser k-point grid
   CSHIFT  =0.1000    complex shift for real part using Kramers Kronig
   OMEGAMAX=  -1.0    maximum frequency
   DEG_THRESHOLD= 0.2000000E-02 threshold for treating states as degnerate
   RTIME   =   -0.100 relaxation time in fs
  (WPLASMAI=    0.000 imaginary part of plasma frequency in eV, 0.658/RTIME)
   DFIELD  = 0.0000000 0.0000000 0.0000000 field for delta impulse in time
 
 Orbital magnetization related:
   ORBITALMAG=     F  switch on orbital magnetization
   LCHIMAG   =     F  perturbation theory with respect to B field
   DQ        =  0.001000  dq finite difference perturbation B field
   LLRAUG    =     F  two centre corrections for induced B field



--------------------------------------------------------------------------------------------------------


 conjugate gradient relaxation of ions
 charge density and potential will be updated during run
 spin polarized calculation
 Variant of blocked Davidson
 Davidson routine will perform the subspace rotation
 perform sub-space diagonalisation
    after iterative eigenvector-optimisation
 modified Broyden-mixing scheme, WC =      100.0
 initial mixing is a Kerker type mixing with AMIX =  0.4000 and BMIX =      1.0000
 Hartree-type preconditioning will be used
 using additional bands           12
 reciprocal scheme for non local part
 use partial core corrections
 calculate Harris-corrections to forces 
   (improved forces if not selfconsistent)
 use gradient corrections 
 use of overlap-Matrix (Vanderbilt PP)
 Gauss-broadening in eV      SIGMA  =   0.05


--------------------------------------------------------------------------------------------------------


  energy-cutoff  :      700.00
  volume of cell :      391.50
      direct lattice vectors                 reciprocal lattice vectors
     4.240033040 -0.030346118  0.000000000     0.236825747  0.136722283  0.000000000
    -2.146266620  3.717690946  0.000000000     0.001933120  0.270100179  0.000000000
     0.000000000  0.000000000 24.939699173     0.000000000  0.000000000  0.040096715

  length of vectors
     4.240141633  4.292748115 24.939699173     0.273458255  0.270107097  0.040096715


 
 k-points in units of 2pi/SCALE and weight: read from INCAR                         
   0.00000000  0.00000000  0.00000000       0.010
   0.03383225  0.01953175  0.00000000       0.010
   0.06766450  0.03906351  0.00000000       0.010
   0.10149675  0.05859526  0.00000000       0.010
  -0.10149675 -0.05859526  0.00000000       0.010
  -0.06766450 -0.03906351  0.00000000       0.010
  -0.03383225 -0.01953175  0.00000000       0.010
   0.00027616  0.03858574  0.00000000       0.010
   0.03410841  0.05811749  0.00000000       0.010
   0.06794066  0.07764925  0.00000000       0.010
   0.10177291  0.09718100  0.00000000       0.010
  -0.10122059 -0.02000952  0.00000000       0.010
  -0.06738834 -0.00047777  0.00000000       0.010
  -0.03355609  0.01905399  0.00000000       0.010
   0.00055232  0.07717148  0.00000000       0.010
   0.03438457  0.09670323  0.00000000       0.010
   0.06821682  0.11623499  0.00000000       0.010
   0.10204907  0.13576674  0.00000000       0.010
  -0.10094443  0.01857622  0.00000000       0.010
  -0.06711218  0.03810797  0.00000000       0.010
  -0.03327993  0.05763972  0.00000000       0.010
   0.00082848  0.11575722  0.00000000       0.010
   0.03466073  0.13528897  0.00000000       0.010
   0.06849298  0.15482073  0.00000000       0.010
   0.10232523  0.17435248  0.00000000       0.010
  -0.10066827  0.05716196  0.00000000       0.010
  -0.06683602  0.07669371  0.00000000       0.010
  -0.03300377  0.09622546  0.00000000       0.010
  -0.00082848 -0.11575722  0.00000000       0.010
   0.03300377 -0.09622546  0.00000000       0.010
   0.06683602 -0.07669371  0.00000000       0.010
   0.10066827 -0.05716196  0.00000000       0.010
  -0.10232523 -0.17435248  0.00000000       0.010
  -0.06849298 -0.15482073  0.00000000       0.010
  -0.03466073 -0.13528897  0.00000000       0.010
  -0.00055232 -0.07717148  0.00000000       0.010
   0.03327993 -0.05763972  0.00000000       0.010
   0.06711218 -0.03810797  0.00000000       0.010
   0.10094443 -0.01857622  0.00000000       0.010
  -0.10204907 -0.13576674  0.00000000       0.010
  -0.06821682 -0.11623499  0.00000000       0.010
  -0.03438457 -0.09670323  0.00000000       0.010
  -0.00027616 -0.03858574  0.00000000       0.010
   0.03355609 -0.01905399  0.00000000       0.010
   0.06738834  0.00047777  0.00000000       0.010
   0.10122059  0.02000952  0.00000000       0.010
  -0.10177291 -0.09718100  0.00000000       0.010
  -0.06794066 -0.07764925  0.00000000       0.010
  -0.03410841 -0.05811749  0.00000000       0.010
   0.00000000  0.00000000  0.02004836       0.010
   0.03383225  0.01953175  0.02004836       0.010
   0.06766450  0.03906351  0.02004836       0.010
   0.10149675  0.05859526  0.02004836       0.010
  -0.10149675 -0.05859526  0.02004836       0.010
  -0.06766450 -0.03906351  0.02004836       0.010
  -0.03383225 -0.01953175  0.02004836       0.010
   0.00027616  0.03858574  0.02004836       0.010
   0.03410841  0.05811749  0.02004836       0.010
   0.06794066  0.07764925  0.02004836       0.010
   0.10177291  0.09718100  0.02004836       0.010
  -0.10122059 -0.02000952  0.02004836       0.010
  -0.06738834 -0.00047777  0.02004836       0.010
  -0.03355609  0.01905399  0.02004836       0.010
   0.00055232  0.07717148  0.02004836       0.010
   0.03438457  0.09670323  0.02004836       0.010
   0.06821682  0.11623499  0.02004836       0.010
   0.10204907  0.13576674  0.02004836       0.010
  -0.10094443  0.01857622  0.02004836       0.010
  -0.06711218  0.03810797  0.02004836       0.010
  -0.03327993  0.05763972  0.02004836       0.010
   0.00082848  0.11575722  0.02004836       0.010
   0.03466073  0.13528897  0.02004836       0.010
   0.06849298  0.15482073  0.02004836       0.010
   0.10232523  0.17435248  0.02004836       0.010
  -0.10066827  0.05716196  0.02004836       0.010
  -0.06683602  0.07669371  0.02004836       0.010
  -0.03300377  0.09622546  0.02004836       0.010
  -0.00082848 -0.11575722  0.02004836       0.010
   0.03300377 -0.09622546  0.02004836       0.010
   0.06683602 -0.07669371  0.02004836       0.010
   0.10066827 -0.05716196  0.02004836       0.010
  -0.10232523 -0.17435248  0.02004836       0.010
  -0.06849298 -0.15482073  0.02004836       0.010
  -0.03466073 -0.13528897  0.02004836       0.010
  -0.00055232 -0.07717148  0.02004836       0.010
   0.03327993 -0.05763972  0.02004836       0.010
   0.06711218 -0.03810797  0.02004836       0.010
   0.10094443 -0.01857622  0.02004836       0.010
  -0.10204907 -0.13576674  0.02004836       0.010
  -0.06821682 -0.11623499  0.02004836       0.010
  -0.03438457 -0.09670323  0.02004836       0.010
  -0.00027616 -0.03858574  0.02004836       0.010
   0.03355609 -0.01905399  0.02004836       0.010
   0.06738834  0.00047777  0.02004836       0.010
   0.10122059  0.02000952  0.02004836       0.010
  -0.10177291 -0.09718100  0.02004836       0.010
  -0.06794066 -0.07764925  0.02004836       0.010
  -0.03410841 -0.05811749  0.02004836       0.010
 
 k-points in reciprocal lattice and weights: read from INCAR                         
   0.00000000  0.00000000  0.00000000       0.010
   0.14285714 -0.00000000  0.00000000       0.010
   0.28571429  0.00000000  0.00000000       0.010
   0.42857143  0.00000000  0.00000000       0.010
  -0.42857143 -0.00000000  0.00000000       0.010
  -0.28571429  0.00000000  0.00000000       0.010
  -0.14285714  0.00000000  0.00000000       0.010
   0.00000000  0.14285714  0.00000000       0.010
   0.14285714  0.14285714  0.00000000       0.010
   0.28571429  0.14285714  0.00000000       0.010
   0.42857143  0.14285714  0.00000000       0.010
  -0.42857143  0.14285714  0.00000000       0.010
  -0.28571429  0.14285714  0.00000000       0.010
  -0.14285714  0.14285714  0.00000000       0.010
  -0.00000000  0.28571429  0.00000000       0.010
   0.14285714  0.28571429  0.00000000       0.010
   0.28571429  0.28571429  0.00000000       0.010
   0.42857143  0.28571429  0.00000000       0.010
  -0.42857143  0.28571429  0.00000000       0.010
  -0.28571429  0.28571429  0.00000000       0.010
  -0.14285714  0.28571429  0.00000000       0.010
   0.00000000  0.42857143  0.00000000       0.010
   0.14285714  0.42857143  0.00000000       0.010
   0.28571429  0.42857143  0.00000000       0.010
   0.42857143  0.42857143  0.00000000       0.010
  -0.42857143  0.42857143  0.00000000       0.010
  -0.28571429  0.42857143  0.00000000       0.010
  -0.14285714  0.42857143  0.00000000       0.010
   0.00000000 -0.42857143  0.00000000       0.010
   0.14285714 -0.42857143  0.00000000       0.010
   0.28571429 -0.42857143  0.00000000       0.010
   0.42857143 -0.42857143  0.00000000       0.010
  -0.42857143 -0.42857143  0.00000000       0.010
  -0.28571429 -0.42857143  0.00000000       0.010
  -0.14285714 -0.42857143  0.00000000       0.010
   0.00000000 -0.28571429  0.00000000       0.010
   0.14285714 -0.28571429  0.00000000       0.010
   0.28571429 -0.28571429  0.00000000       0.010
   0.42857143 -0.28571429  0.00000000       0.010
  -0.42857143 -0.28571429  0.00000000       0.010
  -0.28571429 -0.28571429  0.00000000       0.010
  -0.14285714 -0.28571429  0.00000000       0.010
  -0.00000000 -0.14285714  0.00000000       0.010
   0.14285714 -0.14285714  0.00000000       0.010
   0.28571429 -0.14285714  0.00000000       0.010
   0.42857143 -0.14285714  0.00000000       0.010
  -0.42857143 -0.14285714  0.00000000       0.010
  -0.28571429 -0.14285714  0.00000000       0.010
  -0.14285714 -0.14285714  0.00000000       0.010
   0.00000000  0.00000000  0.50000000       0.010
   0.14285714 -0.00000000  0.50000000       0.010
   0.28571429  0.00000000  0.50000000       0.010
   0.42857143  0.00000000  0.50000000       0.010
  -0.42857143 -0.00000000  0.50000000       0.010
  -0.28571429  0.00000000  0.50000000       0.010
  -0.14285714  0.00000000  0.50000000       0.010
   0.00000000  0.14285714  0.50000000       0.010
   0.14285714  0.14285714  0.50000000       0.010
   0.28571429  0.14285714  0.50000000       0.010
   0.42857143  0.14285714  0.50000000       0.010
  -0.42857143  0.14285714  0.50000000       0.010
  -0.28571429  0.14285714  0.50000000       0.010
  -0.14285714  0.14285714  0.50000000       0.010
  -0.00000000  0.28571429  0.50000000       0.010
   0.14285714  0.28571429  0.50000000       0.010
   0.28571429  0.28571429  0.50000000       0.010
   0.42857143  0.28571429  0.50000000       0.010
  -0.42857143  0.28571429  0.50000000       0.010
  -0.28571429  0.28571429  0.50000000       0.010
  -0.14285714  0.28571429  0.50000000       0.010
   0.00000000  0.42857143  0.50000000       0.010
   0.14285714  0.42857143  0.50000000       0.010
   0.28571429  0.42857143  0.50000000       0.010
   0.42857143  0.42857143  0.50000000       0.010
  -0.42857143  0.42857143  0.50000000       0.010
  -0.28571429  0.42857143  0.50000000       0.010
  -0.14285714  0.42857143  0.50000000       0.010
   0.00000000 -0.42857143  0.50000000       0.010
   0.14285714 -0.42857143  0.50000000       0.010
   0.28571429 -0.42857143  0.50000000       0.010
   0.42857143 -0.42857143  0.50000000       0.010
  -0.42857143 -0.42857143  0.50000000       0.010
  -0.28571429 -0.42857143  0.50000000       0.010
  -0.14285714 -0.42857143  0.50000000       0.010
   0.00000000 -0.28571429  0.50000000       0.010
   0.14285714 -0.28571429  0.50000000       0.010
   0.28571429 -0.28571429  0.50000000       0.010
   0.42857143 -0.28571429  0.50000000       0.010
  -0.42857143 -0.28571429  0.50000000       0.010
  -0.28571429 -0.28571429  0.50000000       0.010
  -0.14285714 -0.28571429  0.50000000       0.010
  -0.00000000 -0.14285714  0.50000000       0.010
   0.14285714 -0.14285714  0.50000000       0.010
   0.28571429 -0.14285714  0.50000000       0.010
   0.42857143 -0.14285714  0.50000000       0.010
  -0.42857143 -0.14285714  0.50000000       0.010
  -0.28571429 -0.14285714  0.50000000       0.010
  -0.14285714 -0.14285714  0.50000000       0.010
 
 position of ions in fractional coordinates (direct lattice) 
   0.35170961  0.67615767  0.10120431
   0.41267842  0.70562115  0.32393989
   0.57494199  0.28777146  0.17140490
   0.23683484  0.61873220  0.21492259
   0.68474040  0.34267459  0.05891482
   0.73923765  0.36889866  0.35883085
 
 position of ions in cartesian coordinates  (Angst):
   0.04004574  2.50307224  2.52400498
   0.23531900  2.61075816  8.07896348
   1.82013874  1.05239809  4.27478660
  -0.32377673  2.29306808  5.36010484
   2.16785088  1.25317899  1.46931780
   2.34263721  1.34901820  8.94913339
 


--------------------------------------------------------------------------------------------------------


 k-point  1 :   0.0000 0.0000 0.0000  plane waves:   16397
 k-point  2 :   0.1429-0.0000 0.0000  plane waves:   16436
 k-point  3 :   0.2857 0.0000 0.0000  plane waves:   16486
 k-point  4 :   0.4286 0.0000 0.0000  plane waves:   16496
 k-point  5 :  -0.4286-0.0000 0.0000  plane waves:   16496
 k-point  6 :  -0.2857 0.0000 0.0000  plane waves:   16486
 k-point  7 :  -0.1429 0.0000 0.0000  plane waves:   16436
 k-point  8 :   0.0000 0.1429 0.0000  plane waves:   16434
 k-point  9 :   0.1429 0.1429 0.0000  plane waves:   16446
 k-point 10 :   0.2857 0.1429 0.0000  plane waves:   16501
 k-point 11 :   0.4286 0.1429 0.0000  plane waves:   16518
 k-point 12 :  -0.4286 0.1429 0.0000  plane waves:   16501
 k-point 13 :  -0.2857 0.1429 0.0000  plane waves:   16448
 k-point 14 :  -0.1429 0.1429 0.0000  plane waves:   16434
 k-point 15 :  -0.0000 0.2857 0.0000  plane waves:   16477
 k-point 16 :   0.1429 0.2857 0.0000  plane waves:   16464
 k-point 17 :   0.2857 0.2857 0.0000  plane waves:   16460
 k-point 18 :   0.4286 0.2857 0.0000  plane waves:   16460
 k-point 19 :  -0.4286 0.2857 0.0000  plane waves:   16466
 k-point 20 :  -0.2857 0.2857 0.0000  plane waves:   16477
 k-point 21 :  -0.1429 0.2857 0.0000  plane waves:   16437
 k-point 22 :   0.0000 0.4286 0.0000  plane waves:   16470
 k-point 23 :   0.1429 0.4286 0.0000  plane waves:   16454
 k-point 24 :   0.2857 0.4286 0.0000  plane waves:   16459
 k-point 25 :   0.4286 0.4286 0.0000  plane waves:   16454
 k-point 26 :  -0.4286 0.4286 0.0000  plane waves:   16470
 k-point 27 :  -0.2857 0.4286 0.0000  plane waves:   16464
 k-point 28 :  -0.1429 0.4286 0.0000  plane waves:   16464
 k-point 29 :   0.0000-0.4286 0.0000  plane waves:   16470
 k-point 30 :   0.1429-0.4286 0.0000  plane waves:   16464
 k-point 31 :   0.2857-0.4286 0.0000  plane waves:   16464
 k-point 32 :   0.4286-0.4286 0.0000  plane waves:   16470
 k-point 33 :  -0.4286-0.4286 0.0000  plane waves:   16454
 k-point 34 :  -0.2857-0.4286 0.0000  plane waves:   16459
 k-point 35 :  -0.1429-0.4286 0.0000  plane waves:   16454
 k-point 36 :   0.0000-0.2857 0.0000  plane waves:   16477
 k-point 37 :   0.1429-0.2857 0.0000  plane waves:   16437
 k-point 38 :   0.2857-0.2857 0.0000  plane waves:   16477
 k-point 39 :   0.4286-0.2857 0.0000  plane waves:   16466
 k-point 40 :  -0.4286-0.2857 0.0000  plane waves:   16460
 k-point 41 :  -0.2857-0.2857 0.0000  plane waves:   16460
 k-point 42 :  -0.1429-0.2857 0.0000  plane waves:   16464
 k-point 43 :  -0.0000-0.1429 0.0000  plane waves:   16434
 k-point 44 :   0.1429-0.1429 0.0000  plane waves:   16434
 k-point 45 :   0.2857-0.1429 0.0000  plane waves:   16448
 k-point 46 :   0.4286-0.1429 0.0000  plane waves:   16501
 k-point 47 :  -0.4286-0.1429 0.0000  plane waves:   16518
 k-point 48 :  -0.2857-0.1429 0.0000  plane waves:   16501
 k-point 49 :  -0.1429-0.1429 0.0000  plane waves:   16446
 k-point 50 :   0.0000 0.0000 0.5000  plane waves:   16416
 k-point 51 :   0.1429-0.0000 0.5000  plane waves:   16428
 k-point 52 :   0.2857 0.0000 0.5000  plane waves:   16468
 k-point 53 :   0.4286 0.0000 0.5000  plane waves:   16520
 k-point 54 :  -0.4286-0.0000 0.5000  plane waves:   16520
 k-point 55 :  -0.2857 0.0000 0.5000  plane waves:   16468
 k-point 56 :  -0.1429 0.0000 0.5000  plane waves:   16428
 k-point 57 :   0.0000 0.1429 0.5000  plane waves:   16422
 k-point 58 :   0.1429 0.1429 0.5000  plane waves:   16444
 k-point 59 :   0.2857 0.1429 0.5000  plane waves:   16486
 k-point 60 :   0.4286 0.1429 0.5000  plane waves:   16526
 k-point 61 :  -0.4286 0.1429 0.5000  plane waves:   16488
 k-point 62 :  -0.2857 0.1429 0.5000  plane waves:   16444
 k-point 63 :  -0.1429 0.1429 0.5000  plane waves:   16422
 k-point 64 :  -0.0000 0.2857 0.5000  plane waves:   16476
 k-point 65 :   0.1429 0.2857 0.5000  plane waves:   16460
 k-point 66 :   0.2857 0.2857 0.5000  plane waves:   16464
 k-point 67 :   0.4286 0.2857 0.5000  plane waves:   16464
 k-point 68 :  -0.4286 0.2857 0.5000  plane waves:   16462
 k-point 69 :  -0.2857 0.2857 0.5000  plane waves:   16474
 k-point 70 :  -0.1429 0.2857 0.5000  plane waves:   16424
 k-point 71 :   0.0000 0.4286 0.5000  plane waves:   16480
 k-point 72 :   0.1429 0.4286 0.5000  plane waves:   16454
 k-point 73 :   0.2857 0.4286 0.5000  plane waves:   16468
 k-point 74 :   0.4286 0.4286 0.5000  plane waves:   16456
 k-point 75 :  -0.4286 0.4286 0.5000  plane waves:   16480
 k-point 76 :  -0.2857 0.4286 0.5000  plane waves:   16480
 k-point 77 :  -0.1429 0.4286 0.5000  plane waves:   16478
 k-point 78 :   0.0000-0.4286 0.5000  plane waves:   16480
 k-point 79 :   0.1429-0.4286 0.5000  plane waves:   16478
 k-point 80 :   0.2857-0.4286 0.5000  plane waves:   16480
 k-point 81 :   0.4286-0.4286 0.5000  plane waves:   16480
 k-point 82 :  -0.4286-0.4286 0.5000  plane waves:   16456
 k-point 83 :  -0.2857-0.4286 0.5000  plane waves:   16468
 k-point 84 :  -0.1429-0.4286 0.5000  plane waves:   16454
 k-point 85 :   0.0000-0.2857 0.5000  plane waves:   16476
 k-point 86 :   0.1429-0.2857 0.5000  plane waves:   16424
 k-point 87 :   0.2857-0.2857 0.5000  plane waves:   16474
 k-point 88 :   0.4286-0.2857 0.5000  plane waves:   16462
 k-point 89 :  -0.4286-0.2857 0.5000  plane waves:   16464
 k-point 90 :  -0.2857-0.2857 0.5000  plane waves:   16464
 k-point 91 :  -0.1429-0.2857 0.5000  plane waves:   16460
 k-point 92 :  -0.0000-0.1429 0.5000  plane waves:   16422
 k-point 93 :   0.1429-0.1429 0.5000  plane waves:   16422
 k-point 94 :   0.2857-0.1429 0.5000  plane waves:   16444
 k-point 95 :   0.4286-0.1429 0.5000  plane waves:   16488
 k-point 96 :  -0.4286-0.1429 0.5000  plane waves:   16526
 k-point 97 :  -0.2857-0.1429 0.5000  plane waves:   16486
 k-point 98 :  -0.1429-0.1429 0.5000  plane waves:   16444

 maximum and minimum number of plane-waves per node :      2090     2026

 maximum number of plane-waves:     16526
 maximum index in each direction: 
   IXMAX=    9   IYMAX=    9   IZMAX=   53
   IXMIN=   -9   IYMIN=   -9   IZMIN=  -54


 parallel 3D FFT for wavefunctions:
    minimum data exchange during FFTs selected (reduces bandwidth)
 parallel 3D FFT for charge:
    minimum data exchange during FFTs selected (reduces bandwidth)


 total amount of memory used by VASP MPI-rank0   104505. kBytes
=======================================================================

   base      :      30000. kBytes
   nonl-proj :      42434. kBytes
   fftplans  :       3400. kBytes
   grid      :       9012. kBytes
   one-center:         16. kBytes
   wavefun   :      19643. kBytes
 
     INWAV:  cpu time    0.0001: real time    0.0001
 Broyden mixing: mesh for mixing (old mesh)
   NGX = 19   NGY = 19   NGZ =107
  (NGX  = 80   NGY  = 80   NGZ  =432)
  gives a total of  38627 points

 initial charge density was supplied:
 charge density of overlapping atoms calculated
 number of electron      24.0000000 magnetization       6.0000000
 keeping initial charge density in first step


--------------------------------------------------------------------------------------------------------


 Maximum index for augmentation-charges         1814 (set IRDMAX)


--------------------------------------------------------------------------------------------------------


 First call to EWALD:  gamma=   0.242
 Maximum number of real-space cells 5x 5x 1
 Maximum number of reciprocal cells 2x 2x 8

    FEWALD:  cpu time    0.0021: real time    0.0088


--------------------------------------- Iteration      1(   1)  ---------------------------------------


    POTLOK:  cpu time    0.0775: real time    0.2491
    SETDIJ:  cpu time    0.0286: real time    0.0436
     EDDAV:  cpu time    4.5646: real time    8.6049
       DOS:  cpu time    0.0031: real time    0.2307
    --------------------------------------------
      LOOP:  cpu time    4.6738: real time    9.1283

 eigenvalue-minimisations  :  9408
 total energy-change (2. order) : 0.1224744E+03  (-0.7833880E+03)
 number of electron      24.0000000 magnetization       6.0000000
 augmentation part       24.0000000 magnetization       6.0000000

 DIPCOR: dipole corrections for dipol
 direction  3 min pos   303,
 dipolmoment           0.000000      0.000000      0.000008 electrons x Angstroem
 Tr[quadrupol]       -76.446568

 energy correction for charged system         0.000000 eV
 dipol+quadrupol energy correction           -0.000000 eV
 added-field ion interaction         -0.000017 eV  (added to PSCEN)


 Free energy of the ion-electron system (eV)
  ---------------------------------------------------
  alpha Z        PSCENC =        -2.39807722
  Ewald energy   TEWEN  =      1911.23135350
  -Hartree energ DENC   =     -2443.49004923
  -exchange      EXHF   =         0.00000000
  -V(xc)+E(xc)   XCENC  =      -211.99003796
  PAW double counting   =       683.11760500     -429.60803766
  entropy T*S    EENTRO =        -0.00430823
  eigenvalues    EBANDS =         6.15559725
  atomic energy  EATOM  =       609.46040274
  Solvation  Ediel_sol  =         0.00000000
  ---------------------------------------------------
  free energy    TOTEN  =       122.47444818 eV

  energy without entropy =      122.47875642  energy(sigma->0) =      122.47660230


--------------------------------------------------------------------------------------------------------




--------------------------------------- Iteration      1(   2)  ---------------------------------------


     EDDAV:  cpu time    5.3628: real time    5.4302
       DOS:  cpu time    0.0023: real time    0.0023
    --------------------------------------------
      LOOP:  cpu time    5.3650: real time    5.4324

 eigenvalue-minimisations  : 12728
 total energy-change (2. order) :-0.1350975E+03  (-0.1293237E+03)
 number of electron      24.0000000 magnetization       6.0000000
 augmentation part       24.0000000 magnetization       6.0000000

 DIPCOR: dipole corrections for dipol
 direction  3 min pos   303,
 dipolmoment           0.000000      0.000000      0.000008 electrons x Angstroem
 Tr[quadrupol]       -76.446568

 energy correction for charged system         0.000000 eV
 dipol+quadrupol energy correction           -0.000000 eV
 added-field ion interaction         -0.000017 eV  (added to PSCEN)


 Free energy of the ion-electron system (eV)
  ---------------------------------------------------
  alpha Z        PSCENC =        -2.39807722
  Ewald energy   TEWEN  =      1911.23135350
  -Hartree energ DENC   =     -2443.49004923
  -exchange      EXHF   =         0.00000000
  -V(xc)+E(xc)   XCENC  =      -211.99003796
  PAW double counting   =       683.11760500     -429.60803766
  entropy T*S    EENTRO =        -0.00108363
  eigenvalues    EBANDS =      -128.94512140
  atomic energy  EATOM  =       609.46040274
  Solvation  Ediel_sol  =         0.00000000
  ---------------------------------------------------
  free energy    TOTEN  =       -12.62304586 eV

  energy without entropy =      -12.62196223  energy(sigma->0) =      -12.62250404


--------------------------------------------------------------------------------------------------------




--------------------------------------- Iteration      1(   3)  ---------------------------------------


     EDDAV:  cpu time    5.3283: real time    5.3384
       DOS:  cpu time    0.0023: real time    0.0023
    --------------------------------------------
      LOOP:  cpu time    5.3305: real time    5.3406

 eigenvalue-minimisations  : 12424
 total energy-change (2. order) :-0.1142367E+02  (-0.1123769E+02)
 number of electron      24.0000000 magnetization       6.0000000
 augmentation part       24.0000000 magnetization       6.0000000

 DIPCOR: dipole corrections for dipol
 direction  3 min pos   303,
 dipolmoment           0.000000      0.000000      0.000008 electrons x Angstroem
 Tr[quadrupol]       -76.446568

 energy correction for charged system         0.000000 eV
 dipol+quadrupol energy correction           -0.000000 eV
 added-field ion interaction         -0.000017 eV  (added to PSCEN)


 Free energy of the ion-electron system (eV)
  ---------------------------------------------------
  alpha Z        PSCENC =        -2.39807722
  Ewald energy   TEWEN  =      1911.23135350
  -Hartree energ DENC   =     -2443.49004923
  -exchange      EXHF   =         0.00000000
  -V(xc)+E(xc)   XCENC  =      -211.99003796
  PAW double counting   =       683.11760500     -429.60803766
  entropy T*S    EENTRO =        -0.00080290
  eigenvalues    EBANDS =      -140.36907624
  atomic energy  EATOM  =       609.46040274
  Solvation  Ediel_sol  =         0.00000000
  ---------------------------------------------------
  free energy    TOTEN  =       -24.04671998 eV

  energy without entropy =      -24.04591708  energy(sigma->0) =      -24.04631853


--------------------------------------------------------------------------------------------------------




--------------------------------------- Iteration      1(   4)  ---------------------------------------


     EDDAV:  cpu time    5.5340: real time    5.5447
       DOS:  cpu time    0.0021: real time    0.0021
    --------------------------------------------
      LOOP:  cpu time    5.5361: real time    5.5468

 eigenvalue-minimisations  : 13112
 total energy-change (2. order) :-0.4084392E+00  (-0.4081239E+00)
 number of electron      24.0000000 magnetization       6.0000000
 augmentation part       24.0000000 magnetization       6.0000000

 DIPCOR: dipole corrections for dipol
 direction  3 min pos   303,
 dipolmoment           0.000000      0.000000      0.000008 electrons x Angstroem
 Tr[quadrupol]       -76.446568

 energy correction for charged system         0.000000 eV
 dipol+quadrupol energy correction           -0.000000 eV
 added-field ion interaction         -0.000017 eV  (added to PSCEN)


 Free energy of the ion-electron system (eV)
  ---------------------------------------------------
  alpha Z        PSCENC =        -2.39807722
  Ewald energy   TEWEN  =      1911.23135350
  -Hartree energ DENC   =     -2443.49004923
  -exchange      EXHF   =         0.00000000
  -V(xc)+E(xc)   XCENC  =      -211.99003796
  PAW double counting   =       683.11760500     -429.60803766
  entropy T*S    EENTRO =        -0.00071004
  eigenvalues    EBANDS =      -140.77760831
  atomic energy  EATOM  =       609.46040274
  Solvation  Ediel_sol  =         0.00000000
  ---------------------------------------------------
  free energy    TOTEN  =       -24.45515919 eV

  energy without entropy =      -24.45444914  energy(sigma->0) =      -24.45480416


--------------------------------------------------------------------------------------------------------




--------------------------------------- Iteration      1(   5)  ---------------------------------------


     EDDAV:  cpu time    5.9673: real time    5.9781
       DOS:  cpu time    0.0021: real time    0.0021
    CHARGE:  cpu time    0.1947: real time    0.4936
    MIXING:  cpu time    0.0036: real time    1.4704
    --------------------------------------------
      LOOP:  cpu time    6.1677: real time    7.9441

 eigenvalue-minimisations  : 14616
 total energy-change (2. order) :-0.1419862E-01  (-0.1419827E-01)
 number of electron      24.0000000 magnetization       5.4348380
 augmentation part       -2.5354192 magnetization       5.3827556

 DIPCOR: dipole corrections for dipol
 direction  3 min pos   303,
 dipolmoment           0.000000      0.000000      0.000008 electrons x Angstroem
 Tr[quadrupol]       -76.446568

 energy correction for charged system         0.000000 eV
 dipol+quadrupol energy correction           -0.000000 eV
 added-field ion interaction         -0.000017 eV  (added to PSCEN)


 Broyden mixing:
  rms(total) = 0.77012E+00    rms(broyden)= 0.77012E+00
  rms(prec ) = 0.79273E+00
  weight for this iteration     100.00

 Free energy of the ion-electron system (eV)
  ---------------------------------------------------
  alpha Z        PSCENC =        -2.39807722
  Ewald energy   TEWEN  =      1911.23135350
  -Hartree energ DENC   =     -2443.49004923
  -exchange      EXHF   =         0.00000000
  -V(xc)+E(xc)   XCENC  =      -211.99003796
  PAW double counting   =       683.11760500     -429.60803766
  entropy T*S    EENTRO =        -0.00071020
  eigenvalues    EBANDS =      -140.79180678
  atomic energy  EATOM  =       609.46040274
  Solvation  Ediel_sol  =         0.00000000
  ---------------------------------------------------
  free energy    TOTEN  =       -24.46935781 eV

  energy without entropy =      -24.46864761  energy(sigma->0) =      -24.46900271


--------------------------------------------------------------------------------------------------------




--------------------------------------- Iteration      1(   6)  ---------------------------------------


    POTLOK:  cpu time    0.0715: real time    0.0719
    SETDIJ:  cpu time    0.0049: real time    0.0049
     EDDAV:  cpu time    5.0563: real time    5.0654
       DOS:  cpu time    0.0022: real time    0.0022
    CHARGE:  cpu time    0.1956: real time    0.1956
    MIXING:  cpu time    0.0026: real time    1.2248
    --------------------------------------------
      LOOP:  cpu time    5.3331: real time    6.5648

 eigenvalue-minimisations  : 11560
 total energy-change (2. order) : 0.3095677E+01  (-0.1060965E+01)
 number of electron      24.0000000 magnetization       5.0580976
 augmentation part       -2.5131724 magnetization       4.3464005

 DIPCOR: dipole corrections for dipol
 direction  3 min pos   303,
 dipolmoment           0.000000      0.000000      0.199194 electrons x Angstroem
 Tr[quadrupol]       -76.551642

 energy correction for charged system         0.000000 eV
 dipol+quadrupol energy correction           -0.009170 eV
 added-field ion interaction         -0.402308 eV  (added to PSCEN)


 Broyden mixing:
  rms(total) = 0.52668E+00    rms(broyden)= 0.52668E+00
  rms(prec ) = 0.60140E+00
  weight for this iteration     100.00

 eigenvalues of (default mixing * dielectric matrix)
  average eigenvalue GAMMA=   0.9207
  0.9207

 Free energy of the ion-electron system (eV)
  ---------------------------------------------------
  alpha Z        PSCENC =        -2.80953788
  Ewald energy   TEWEN  =      1911.23135350
  -Hartree energ DENC   =     -2447.70801405
  -exchange      EXHF   =         0.00000000
  -V(xc)+E(xc)   XCENC  =      -209.75623099
  PAW double counting   =       971.08501392     -717.78939826
  entropy T*S    EENTRO =        -0.00579258
  eigenvalues    EBANDS =      -135.08147728
  atomic energy  EATOM  =       609.46040274
  Solvation  Ediel_sol  =         0.00000000
  ---------------------------------------------------
  free energy    TOTEN  =       -21.37368088 eV

  energy without entropy =      -21.36788830  energy(sigma->0) =      -21.37078459


--------------------------------------------------------------------------------------------------------




--------------------------------------- Iteration      1(   7)  ---------------------------------------


    POTLOK:  cpu time    0.0691: real time    0.0691
    SETDIJ:  cpu time    0.0047: real time    0.0047
     EDDAV:  cpu time    5.3838: real time    5.3926
       DOS:  cpu time    0.0022: real time    0.0022
    CHARGE:  cpu time    0.1964: real time    0.1964
    MIXING:  cpu time    0.0014: real time    0.3696
    --------------------------------------------
      LOOP:  cpu time    5.6576: real time    6.0347

 eigenvalue-minimisations  : 12720
 total energy-change (2. order) :-0.2642597E+00  (-0.1074647E+01)
 number of electron      24.0000000 magnetization       4.2668262
 augmentation part       -2.5208121 magnetization       4.2616142

 DIPCOR: dipole corrections for dipol
 direction  3 min pos   303,
 dipolmoment           0.000000      0.000000     -0.112017 electrons x Angstroem
 Tr[quadrupol]       -77.360164

 energy correction for charged system         0.000000 eV
 dipol+quadrupol energy correction           -0.002900 eV
 added-field ion interaction          0.226238 eV  (added to PSCEN)


 Broyden mixing:
  rms(total) = 0.48710E+00    rms(broyden)= 0.48710E+00
  rms(prec ) = 0.56356E+00
  weight for this iteration     100.00

 eigenvalues of (default mixing * dielectric matrix)
  average eigenvalue GAMMA=   1.0596
  1.6101  0.5091

 Free energy of the ion-electron system (eV)
  ---------------------------------------------------
  alpha Z        PSCENC =        -2.17472263
  Ewald energy   TEWEN  =      1911.23135350
  -Hartree energ DENC   =     -2454.49566581
  -exchange      EXHF   =         0.00000000
  -V(xc)+E(xc)   XCENC  =      -209.52436032
  PAW double counting   =      1149.26376758     -896.06582390
  entropy T*S    EENTRO =        -0.00082787
  eigenvalues    EBANDS =      -129.33206383
  atomic energy  EATOM  =       609.46040274
  Solvation  Ediel_sol  =         0.00000000
  ---------------------------------------------------
  free energy    TOTEN  =       -21.63794054 eV

  energy without entropy =      -21.63711267  energy(sigma->0) =      -21.63752660


--------------------------------------------------------------------------------------------------------




--------------------------------------- Iteration      1(   8)  ---------------------------------------


    POTLOK:  cpu time    0.0691: real time    0.0691
    SETDIJ:  cpu time    0.0048: real time    0.0048
     EDDAV:  cpu time    5.1621: real time    5.1834
       DOS:  cpu time    0.0023: real time    0.0023
    CHARGE:  cpu time    0.1931: real time    0.1948
    MIXING:  cpu time    0.0012: real time    0.0013
    --------------------------------------------
      LOOP:  cpu time    5.4327: real time    5.4558

 eigenvalue-minimisations  : 11984
 total energy-change (2. order) : 0.1262762E+01  (-0.2900063E+00)
 number of electron      24.0000000 magnetization       3.6169311
 augmentation part       -2.5184395 magnetization       3.5815479

 DIPCOR: dipole corrections for dipol
 direction  3 min pos   303,
 dipolmoment           0.000000      0.000000      0.065342 electrons x Angstroem
 Tr[quadrupol]       -78.115714

 energy correction for charged system         0.000000 eV
 dipol+quadrupol energy correction           -0.000987 eV
 added-field ion interaction         -0.131970 eV  (added to PSCEN)


 Broyden mixing:
  rms(total) = 0.33109E+00    rms(broyden)= 0.33109E+00
  rms(prec ) = 0.34241E+00
  weight for this iteration     100.00

 eigenvalues of (default mixing * dielectric matrix)
  average eigenvalue GAMMA=   1.2020
  2.3568  0.7845  0.4647

 Free energy of the ion-electron system (eV)
  ---------------------------------------------------
  alpha Z        PSCENC =        -2.53101724
  Ewald energy   TEWEN  =      1911.23135350
  -Hartree energ DENC   =     -2463.58331506
  -exchange      EXHF   =         0.00000000
  -V(xc)+E(xc)   XCENC  =      -208.70821087
  PAW double counting   =      1504.30477353    -1251.27969151
  entropy T*S    EENTRO =        -0.00255532
  eigenvalues    EBANDS =      -119.26691837
  atomic energy  EATOM  =       609.46040274
  Solvation  Ediel_sol  =         0.00000000
  ---------------------------------------------------
  free energy    TOTEN  =       -20.37517858 eV

  energy without entropy =      -20.37262327  energy(sigma->0) =      -20.37390093


--------------------------------------------------------------------------------------------------------




--------------------------------------- Iteration      1(   9)  ---------------------------------------


    POTLOK:  cpu time    0.0670: real time    0.0686
    SETDIJ:  cpu time    0.0046: real time    0.0048
     EDDAV:  cpu time    5.4332: real time    5.4656
       DOS:  cpu time    0.0023: real time    0.0023
    CHARGE:  cpu time    0.1938: real time    0.1938
    MIXING:  cpu time    0.0015: real time    0.0015
    --------------------------------------------
      LOOP:  cpu time    5.7023: real time    5.7364

 eigenvalue-minimisations  : 12416
 total energy-change (2. order) :-0.1055709E+00  (-0.5681480E-01)
 number of electron      24.0000000 magnetization       3.0912192
 augmentation part       -2.4972663 magnetization       2.9515240

 DIPCOR: dipole corrections for dipol
 direction  3 min pos   303,
 dipolmoment           0.000000      0.000000      0.091067 electrons x Angstroem
 Tr[quadrupol]       -78.415288

 energy correction for charged system         0.000000 eV
 dipol+quadrupol energy correction           -0.001917 eV
 added-field ion interaction         -0.183927 eV  (added to PSCEN)


 Broyden mixing:
  rms(total) = 0.26132E+00    rms(broyden)= 0.26132E+00
  rms(prec ) = 0.26321E+00
  weight for this iteration     100.00

 eigenvalues of (default mixing * dielectric matrix)
  average eigenvalue GAMMA=   1.1840
  2.6641  1.0128  0.4527  0.6062

 Free energy of the ion-electron system (eV)
  ---------------------------------------------------
  alpha Z        PSCENC =        -2.58390390
  Ewald energy   TEWEN  =      1911.23135350
  -Hartree energ DENC   =     -2467.80000223
  -exchange      EXHF   =         0.00000000
  -V(xc)+E(xc)   XCENC  =      -208.58804426
  PAW double counting   =      1664.40852980    -1411.45038684
  entropy T*S    EENTRO =        -0.00409908
  eigenvalues    EBANDS =      -115.15459926
  atomic energy  EATOM  =       609.46040274
  Solvation  Ediel_sol  =         0.00000000
  ---------------------------------------------------
  free energy    TOTEN  =       -20.48074953 eV

  energy without entropy =      -20.47665045  energy(sigma->0) =      -20.47869999


--------------------------------------------------------------------------------------------------------




--------------------------------------- Iteration      1(  10)  ---------------------------------------


    POTLOK:  cpu time    0.0690: real time    0.0714
    SETDIJ:  cpu time    0.0048: real time    0.0048
     EDDAV:  cpu time    5.2402: real time    5.2483
       DOS:  cpu time    0.0022: real time    0.0022
    CHARGE:  cpu time    0.2028: real time    0.2028
    MIXING:  cpu time    0.0013: real time    0.0013
    --------------------------------------------
      LOOP:  cpu time    5.5203: real time    5.5308

 eigenvalue-minimisations  : 12176
 total energy-change (2. order) :-0.7552986E+00  (-0.1759837E-01)
 number of electron      24.0000000 magnetization       2.0170226
 augmentation part       -2.4929295 magnetization       1.9135450

 DIPCOR: dipole corrections for dipol
 direction  3 min pos   303,
 dipolmoment           0.000000      0.000000      0.098725 electrons x Angstroem
 Tr[quadrupol]       -78.642611

 energy correction for charged system         0.000000 eV
 dipol+quadrupol energy correction           -0.002252 eV
 added-field ion interaction         -0.199393 eV  (added to PSCEN)


 Broyden mixing:
  rms(total) = 0.22422E+00    rms(broyden)= 0.22422E+00
  rms(prec ) = 0.22555E+00
  weight for this iteration     100.00

 eigenvalues of (default mixing * dielectric matrix)
  average eigenvalue GAMMA=   1.2935
  2.8388  1.7524  0.4668  0.7884  0.6209

 Free energy of the ion-electron system (eV)
  ---------------------------------------------------
  alpha Z        PSCENC =        -2.59970627
  Ewald energy   TEWEN  =      1911.23135350
  -Hartree energ DENC   =     -2469.61079307
  -exchange      EXHF   =         0.00000000
  -V(xc)+E(xc)   XCENC  =      -208.96752873
  PAW double counting   =      1640.52833423    -1387.53532929
  entropy T*S    EENTRO =        -0.00261086
  eigenvalues    EBANDS =      -113.74017038
  atomic energy  EATOM  =       609.46040274
  Solvation  Ediel_sol  =         0.00000000
  ---------------------------------------------------
  free energy    TOTEN  =       -21.23604812 eV

  energy without entropy =      -21.23343726  energy(sigma->0) =      -21.23474269


--------------------------------------------------------------------------------------------------------




--------------------------------------- Iteration      1(  11)  ---------------------------------------


    POTLOK:  cpu time    0.0682: real time    0.0681
    SETDIJ:  cpu time    0.0048: real time    0.0048
     EDDAV:  cpu time    4.9543: real time    4.9627
       DOS:  cpu time    0.0022: real time    0.0022
    CHARGE:  cpu time    0.1956: real time    0.1955
    MIXING:  cpu time    0.0013: real time    0.0013
    --------------------------------------------
      LOOP:  cpu time    5.2263: real time    5.2347

 eigenvalue-minimisations  : 11128
 total energy-change (2. order) :-0.1418050E+01  (-0.7387613E-01)
 number of electron      24.0000000 magnetization       0.7759481
 augmentation part       -2.4863854 magnetization       0.7424901

 DIPCOR: dipole corrections for dipol
 direction  3 min pos   303,
 dipolmoment           0.000000      0.000000      0.100125 electrons x Angstroem
 Tr[quadrupol]       -79.112114

 energy correction for charged system         0.000000 eV
 dipol+quadrupol energy correction           -0.002317 eV
 added-field ion interaction         -0.202221 eV  (added to PSCEN)


 Broyden mixing:
  rms(total) = 0.15086E+00    rms(broyden)= 0.15086E+00
  rms(prec ) = 0.15605E+00
  weight for this iteration     100.00

 eigenvalues of (default mixing * dielectric matrix)
  average eigenvalue GAMMA=   1.7818
  5.5325  2.4161  0.4508  0.8718  0.8115  0.6080

 Free energy of the ion-electron system (eV)
  ---------------------------------------------------
  alpha Z        PSCENC =        -2.60259876
  Ewald energy   TEWEN  =      1911.23135350
  -Hartree energ DENC   =     -2473.07822287
  -exchange      EXHF   =         0.00000000
  -V(xc)+E(xc)   XCENC  =      -209.59140589
  PAW double counting   =      1610.28766836    -1357.23658878
  entropy T*S    EENTRO =        -0.00034836
  eigenvalues    EBANDS =      -111.12435767
  atomic energy  EATOM  =       609.46040274
  Solvation  Ediel_sol  =         0.00000000
  ---------------------------------------------------
  free energy    TOTEN  =       -22.65409772 eV

  energy without entropy =      -22.65374936  energy(sigma->0) =      -22.65392354


--------------------------------------------------------------------------------------------------------




--------------------------------------- Iteration      1(  12)  ---------------------------------------


    POTLOK:  cpu time    0.0682: real time    0.0682
    SETDIJ:  cpu time    0.0048: real time    0.0048
     EDDAV:  cpu time    4.7456: real time    4.7525
       DOS:  cpu time    0.0021: real time    0.0021
    CHARGE:  cpu time    0.1933: real time    0.1933
    MIXING:  cpu time    0.0015: real time    0.0451
    --------------------------------------------
      LOOP:  cpu time    5.0156: real time    5.0661

 eigenvalue-minimisations  : 10584
 total energy-change (2. order) :-0.1558582E+01  (-0.1653581E+00)
 number of electron      24.0000000 magnetization       0.4928066
 augmentation part       -2.4729036 magnetization       0.5092277

 DIPCOR: dipole corrections for dipol
 direction  3 min pos   303,
 dipolmoment           0.000000      0.000000      0.133703 electrons x Angstroem
 Tr[quadrupol]       -79.493082

 energy correction for charged system         0.000000 eV
 dipol+quadrupol energy correction           -0.004131 eV
 added-field ion interaction         -0.270037 eV  (added to PSCEN)


 Broyden mixing:
  rms(total) = 0.85241E-01    rms(broyden)= 0.85241E-01
  rms(prec ) = 0.92456E-01
  weight for this iteration     100.00

 eigenvalues of (default mixing * dielectric matrix)
  average eigenvalue GAMMA=   1.9366
  7.3347  2.4674  0.9507  0.9507  0.4504  0.8006  0.6021

 Free energy of the ion-electron system (eV)
  ---------------------------------------------------
  alpha Z        PSCENC =        -2.67222849
  Ewald energy   TEWEN  =      1911.23135350
  -Hartree energ DENC   =     -2475.66138892
  -exchange      EXHF   =         0.00000000
  -V(xc)+E(xc)   XCENC  =      -210.34048197
  PAW double counting   =      1584.96560374    -1331.86280546
  entropy T*S    EENTRO =        -0.00055398
  eigenvalues    EBANDS =      -109.33258090
  atomic energy  EATOM  =       609.46040274
  Solvation  Ediel_sol  =         0.00000000
  ---------------------------------------------------
  free energy    TOTEN  =       -24.21267973 eV

  energy without entropy =      -24.21212575  energy(sigma->0) =      -24.21240274


--------------------------------------------------------------------------------------------------------




--------------------------------------- Iteration      1(  13)  ---------------------------------------


    POTLOK:  cpu time    0.0678: real time    0.0678
    SETDIJ:  cpu time    0.0048: real time    0.0048
     EDDAV:  cpu time    4.6574: real time    4.6655
       DOS:  cpu time    0.0021: real time    0.0021
    CHARGE:  cpu time    0.1926: real time    0.1926
    MIXING:  cpu time    0.0014: real time    0.0014
    --------------------------------------------
      LOOP:  cpu time    4.9260: real time    4.9342

 eigenvalue-minimisations  : 10352
 total energy-change (2. order) :-0.4523159E+00  (-0.4037829E-01)
 number of electron      24.0000000 magnetization       0.2632116
 augmentation part       -2.4717869 magnetization       0.2758403

 DIPCOR: dipole corrections for dipol
 direction  3 min pos   303,
 dipolmoment           0.000000      0.000000      0.119842 electrons x Angstroem
 Tr[quadrupol]       -79.467334

 energy correction for charged system         0.000000 eV
 dipol+quadrupol energy correction           -0.003319 eV
 added-field ion interaction         -0.242042 eV  (added to PSCEN)


 Broyden mixing:
  rms(total) = 0.55746E-01    rms(broyden)= 0.55746E-01
  rms(prec ) = 0.63011E-01
  weight for this iteration     100.00

 eigenvalues of (default mixing * dielectric matrix)
  average eigenvalue GAMMA=   2.0922
  8.8532  2.6960  1.6963  0.9593  0.4523  0.7578  0.7578  0.5650

 Free energy of the ion-electron system (eV)
  ---------------------------------------------------
  alpha Z        PSCENC =        -2.64342189
  Ewald energy   TEWEN  =      1911.23135350
  -Hartree energ DENC   =     -2474.63750560
  -exchange      EXHF   =         0.00000000
  -V(xc)+E(xc)   XCENC  =      -210.63377091
  PAW double counting   =      1566.37564065    -1313.25947287
  entropy T*S    EENTRO =        -0.00009472
  eigenvalues    EBANDS =      -110.55812651
  atomic energy  EATOM  =       609.46040274
  Solvation  Ediel_sol  =         0.00000000
  ---------------------------------------------------
  free energy    TOTEN  =       -24.66499561 eV

  energy without entropy =      -24.66490089  energy(sigma->0) =      -24.66494825


--------------------------------------------------------------------------------------------------------




--------------------------------------- Iteration      1(  14)  ---------------------------------------


    POTLOK:  cpu time    0.0685: real time    0.0685
    SETDIJ:  cpu time    0.0048: real time    0.0048
     EDDAV:  cpu time    4.9135: real time    4.9242
       DOS:  cpu time    0.0023: real time    0.0023
    CHARGE:  cpu time    0.1937: real time    0.1938
    MIXING:  cpu time    0.0015: real time    0.0015
    --------------------------------------------
      LOOP:  cpu time    5.1843: real time    5.1950

 eigenvalue-minimisations  : 11112
 total energy-change (2. order) :-0.2434915E+00  (-0.2745618E-01)
 number of electron      24.0000000 magnetization       0.1958528
 augmentation part       -2.4734214 magnetization       0.1971105

 DIPCOR: dipole corrections for dipol
 direction  3 min pos   303,
 dipolmoment           0.000000      0.000000      0.098457 electrons x Angstroem
 Tr[quadrupol]       -79.156749

 energy correction for charged system         0.000000 eV
 dipol+quadrupol energy correction           -0.002240 eV
 added-field ion interaction         -0.198852 eV  (added to PSCEN)


 Broyden mixing:
  rms(total) = 0.33944E-01    rms(broyden)= 0.33944E-01
  rms(prec ) = 0.42436E-01
  weight for this iteration     100.00

 eigenvalues of (default mixing * dielectric matrix)
  average eigenvalue GAMMA=   2.0673
  9.5511  2.8403  1.8873  0.9593  0.8543  0.8543  0.4519  0.6460  0.5614

 Free energy of the ion-electron system (eV)
  ---------------------------------------------------
  alpha Z        PSCENC =        -2.59915323
  Ewald energy   TEWEN  =      1911.23135350
  -Hartree energ DENC   =     -2471.03833158
  -exchange      EXHF   =         0.00000000
  -V(xc)+E(xc)   XCENC  =      -210.86962968
  PAW double counting   =      1545.91909882    -1292.80001212
  entropy T*S    EENTRO =        -0.00051962
  eigenvalues    EBANDS =      -114.21169590
  atomic energy  EATOM  =       609.46040274
  Solvation  Ediel_sol  =         0.00000000
  ---------------------------------------------------
  free energy    TOTEN  =       -24.90848708 eV

  energy without entropy =      -24.90796746  energy(sigma->0) =      -24.90822727


--------------------------------------------------------------------------------------------------------




--------------------------------------- Iteration      1(  15)  ---------------------------------------


    POTLOK:  cpu time    0.0686: real time    0.0686
    SETDIJ:  cpu time    0.0047: real time    0.0047
     EDDAV:  cpu time    5.1059: real time    5.1174
       DOS:  cpu time    0.0022: real time    0.0022
    CHARGE:  cpu time    0.1922: real time    0.1922
    MIXING:  cpu time    0.0015: real time    0.0015
    --------------------------------------------
      LOOP:  cpu time    5.3752: real time    5.3866

 eigenvalue-minimisations  : 11672
 total energy-change (2. order) :-0.1120433E+00  (-0.4195301E-02)
 number of electron      24.0000000 magnetization       0.1419875
 augmentation part       -2.4730843 magnetization       0.1446227

 DIPCOR: dipole corrections for dipol
 direction  3 min pos   303,
 dipolmoment           0.000000      0.000000      0.106638 electrons x Angstroem
 Tr[quadrupol]       -78.992607

 energy correction for charged system         0.000000 eV
 dipol+quadrupol energy correction           -0.002628 eV
 added-field ion interaction         -0.215375 eV  (added to PSCEN)


 Broyden mixing:
  rms(total) = 0.21864E-01    rms(broyden)= 0.21864E-01
  rms(prec ) = 0.26727E-01
  weight for this iteration     100.00

 eigenvalues of (default mixing * dielectric matrix)
  average eigenvalue GAMMA=   2.0380
  9.9303  2.9723  2.0711  1.1109  1.1109  0.4515  0.7751  0.7751  0.6381  0.5442

 Free energy of the ion-electron system (eV)
  ---------------------------------------------------
  alpha Z        PSCENC =        -2.61606388
  Ewald energy   TEWEN  =      1911.23135350
  -Hartree energ DENC   =     -2469.60725643
  -exchange      EXHF   =         0.00000000
  -V(xc)+E(xc)   XCENC  =      -210.97246135
  PAW double counting   =      1549.08061395    -1295.96993931
  entropy T*S    EENTRO =        -0.00007901
  eigenvalues    EBANDS =      -115.62710054
  atomic energy  EATOM  =       609.46040274
  Solvation  Ediel_sol  =         0.00000000
  ---------------------------------------------------
  free energy    TOTEN  =       -25.02053034 eV

  energy without entropy =      -25.02045132  energy(sigma->0) =      -25.02049083


--------------------------------------------------------------------------------------------------------




--------------------------------------- Iteration      1(  16)  ---------------------------------------


    POTLOK:  cpu time    0.0691: real time    0.0691
    SETDIJ:  cpu time    0.0048: real time    0.0048
     EDDAV:  cpu time    4.7847: real time    4.7927
       DOS:  cpu time    0.0019: real time    0.0019
    CHARGE:  cpu time    0.1964: real time    0.1963
    MIXING:  cpu time    0.0025: real time    0.1356
    --------------------------------------------
      LOOP:  cpu time    5.0593: real time    5.2004

 eigenvalue-minimisations  : 10696
 total energy-change (2. order) :-0.1097772E+00  (-0.1775171E-02)
 number of electron      24.0000000 magnetization       0.0805248
[...]
     21       4.4062      0.00000
     22       4.6892      0.00000
     23       4.9120      0.00000
     24       5.4037      0.00000

 k-point    88 :       0.4286   -0.2857    0.5000
  band No.  band energies     occupation 
      1     -10.8934      1.00000
      2     -10.0836      1.00000
      3      -9.0998      1.00000
      4      -6.2949      1.00000
      5      -5.8660      1.00000
      6      -4.6949      1.00000
      7      -4.0874      1.00000
      8      -3.7114      1.00000
      9      -2.5862      1.00000
     10      -2.5410      1.00000
     11      -1.9766      1.00000
     12      -1.0904      1.00000
     13       0.7937      0.00000
     14       1.1040      0.00000
     15       1.4618      0.00000
     16       2.1149      0.00000
     17       2.9444      0.00000
     18       3.3186      0.00000
     19       3.4738      0.00000
     20       4.0104      0.00000
     21       4.4482      0.00000
     22       4.8791      0.00000
     23       5.1928      0.00000
     24       5.3900      0.00000

 k-point    89 :      -0.4286   -0.2857    0.5000
  band No.  band energies     occupation 
      1     -10.3442      1.00000
      2      -9.9571      1.00000
      3      -8.7267      1.00000
      4      -6.5551      1.00000
      5      -6.1375      1.00000
      6      -5.2575      1.00000
      7      -4.8701      1.00000
      8      -3.6670      1.00000
      9      -3.3015      1.00000
     10      -2.9926      1.00000
     11      -2.7038      1.00000
     12      -0.8524      1.00000
     13       0.5955      0.00000
     14       0.9321      0.00000
     15       1.7759      0.00000
     16       3.0929      0.00000
     17       3.4050      0.00000
     18       3.6171      0.00000
     19       3.8821      0.00000
     20       4.6073      0.00000
     21       5.0996      0.00000
     22       5.4198      0.00000
     23       5.5310      0.00000
     24       5.7667      0.00000

 k-point    90 :      -0.2857   -0.2857    0.5000
  band No.  band energies     occupation 
      1     -10.3444      1.00000
      2      -9.9570      1.00000
      3      -8.7269      1.00000
      4      -6.5555      1.00000
      5      -6.1365      1.00000
      6      -5.2583      1.00000
      7      -4.8701      1.00000
      8      -3.6664      1.00000
      9      -3.3014      1.00000
     10      -2.9926      1.00000
     11      -2.7035      1.00000
     12      -0.8532      1.00000
     13       0.5931      0.00000
     14       0.9350      0.00000
     15       1.7767      0.00000
     16       3.0933      0.00000
     17       3.4031      0.00000
     18       3.6193      0.00000
     19       3.8823      0.00000
     20       4.6086      0.00000
     21       5.0977      0.00000
     22       5.4200      0.00000
     23       5.5324      0.00000
     24       5.7659      0.00000

 k-point    91 :      -0.1429   -0.2857    0.5000
  band No.  band energies     occupation 
      1     -10.8935      1.00000
      2     -10.0837      1.00000
      3      -9.1000      1.00000
      4      -6.2953      1.00000
      5      -5.8653      1.00000
      6      -4.6957      1.00000
      7      -4.0871      1.00000
      8      -3.7111      1.00000
      9      -2.5853      1.00000
     10      -2.5397      1.00000
     11      -1.9770      1.00000
     12      -1.0924      1.00000
     13       0.7927      0.00000
     14       1.1053      0.00000
     15       1.4643      0.00000
     16       2.1143      0.00000
     17       2.9459      0.00000
     18       3.3178      0.00000
     19       3.4742      0.00000
     20       4.0142      0.00000
     21       4.4452      0.00000
     22       4.8798      0.00000
     23       5.1923      0.00000
     24       5.3891      0.00000

 k-point    92 :      -0.0000   -0.1429    0.5000
  band No.  band energies     occupation 
      1     -11.8241      1.00000
      2     -10.7469      1.00000
      3      -9.9181      1.00000
      4      -5.9931      1.00000
      5      -3.7089      1.00000
      6      -3.3935      1.00000
      7      -2.3420      1.00000
      8      -2.2258      1.00000
      9      -1.6973      1.00000
     10      -1.2897      1.00000
     11      -1.0677      1.00000
     12      -0.6190      0.99856
     13       0.6801      0.00000
     14       1.4917      0.00000
     15       1.8297      0.00000
     16       2.1436      0.00000
     17       2.5085      0.00000
     18       2.6630      0.00000
     19       2.8454      0.00000
     20       3.4014      0.00000
     21       3.6663      0.00000
     22       4.0092      0.00000
     23       4.2513      0.00000
     24       4.4285      0.00000

 k-point    93 :       0.1429   -0.1429    0.5000
  band No.  band energies     occupation 
      1     -11.8241      1.00000
      2     -10.7469      1.00000
      3      -9.9181      1.00000
      4      -5.9930      1.00000
      5      -3.7095      1.00000
      6      -3.3926      1.00000
      7      -2.3421      1.00000
      8      -2.2260      1.00000
      9      -1.6977      1.00000
     10      -1.2898      1.00000
     11      -1.0675      1.00000
     12      -0.6189      0.99854
     13       0.6798      0.00000
     14       1.4914      0.00000
     15       1.8288      0.00000
     16       2.1435      0.00000
     17       2.5090      0.00000
     18       2.6634      0.00000
     19       2.8458      0.00000
     20       3.4017      0.00000
     21       3.6663      0.00000
     22       4.0079      0.00000
     23       4.2513      0.00000
     24       4.4293      0.00000

 k-point    94 :       0.2857   -0.1429    0.5000
  band No.  band energies     occupation 
      1     -11.4747      1.00000
      2     -10.4660      1.00000
      3      -9.6019      1.00000
      4      -5.8933      1.00000
      5      -4.8440      1.00000
      6      -3.6387      1.00000
      7      -3.4231      1.00000
      8      -3.0381      1.00000
      9      -2.3599      1.00000
     10      -1.9434      1.00000
     11      -1.3647      1.00000
     12      -1.0729      1.00000
     13       1.0907      0.00000
     14       1.4787      0.00000
     15       1.6456      0.00000
     16       2.1631      0.00000
     17       2.2886      0.00000
     18       3.1123      0.00000
     19       3.4725      0.00000
     20       3.6676      0.00000
     21       3.9423      0.00000
     22       4.1704      0.00000
     23       4.7275      0.00000
     24       4.9668      0.00000

 k-point    95 :       0.4286   -0.1429    0.5000
  band No.  band energies     occupation 
      1     -10.8597      1.00000
      2     -10.0879      1.00000
      3      -9.0944      1.00000
      4      -6.2454      1.00000
      5      -5.8395      1.00000
      6      -4.7363      1.00000
      7      -4.0502      1.00000
      8      -3.6573      1.00000
      9      -2.7228      1.00000
     10      -2.4272      1.00000
     11      -2.1028      1.00000
     12      -1.1578      1.00000
     13       0.7289      0.00000
     14       1.0464      0.00000
     15       1.4538      0.00000
     16       1.9610      0.00000
     17       2.6495      0.00000
     18       3.1968      0.00000
     19       3.8550      0.00000
     20       4.1269      0.00000
     21       4.4691      0.00000
     22       4.6217      0.00000
     23       5.2526      0.00000
     24       5.5693      0.00000

 k-point    96 :      -0.4286   -0.1429    0.5000
  band No.  band energies     occupation 
      1     -10.3671      1.00000
      2     -10.0310      1.00000
      3      -8.7873      1.00000
      4      -6.6118      1.00000
      5      -6.2546      1.00000
      6      -5.3913      1.00000
      7      -4.2831      1.00000
      8      -3.4252      1.00000
      9      -2.8909      1.00000
     10      -2.8560      1.00000
     11      -2.3605      1.00000
     12      -0.9820      1.00000
     13       0.4350      0.00000
     14       0.5776      0.00000
     15       1.5998      0.00000
     16       1.9164      0.00000
     17       2.4144      0.00000
     18       3.0441      0.00000
     19       3.5306      0.00000
     20       4.2913      0.00000
     21       5.2527      0.00000
     22       5.5984      0.00000
     23       6.1681      0.00000
     24       6.1822      0.00000

 k-point    97 :      -0.2857   -0.1429    0.5000
  band No.  band energies     occupation 
      1     -10.8598      1.00000
      2     -10.0880      1.00000
      3      -9.0945      1.00000
      4      -6.2456      1.00000
      5      -5.8390      1.00000
      6      -4.7365      1.00000
      7      -4.0504      1.00000
      8      -3.6572      1.00000
      9      -2.7224      1.00000
     10      -2.4270      1.00000
     11      -2.1028      1.00000
     12      -1.1586      1.00000
     13       0.7286      0.00000
     14       1.0455      0.00000
     15       1.4547      0.00000
     16       1.9620      0.00000
     17       2.6505      0.00000
     18       3.1960      0.00000
     19       3.8561      0.00000
     20       4.1277      0.00000
     21       4.4694      0.00000
     22       4.6212      0.00000
     23       5.2523      0.00000
     24       5.5696      0.00000

 k-point    98 :      -0.1429   -0.1429    0.5000
  band No.  band energies     occupation 
      1     -11.4747      1.00000
      2     -10.4660      1.00000
      3      -9.6020      1.00000
      4      -5.8936      1.00000
      5      -4.8435      1.00000
      6      -3.6390      1.00000
      7      -3.4237      1.00000
      8      -3.0378      1.00000
      9      -2.3587      1.00000
     10      -1.9434      1.00000
     11      -1.3648      1.00000
     12      -1.0740      1.00000
     13       1.0917      0.00000
     14       1.4788      0.00000
     15       1.6454      0.00000
     16       2.1643      0.00000
     17       2.2884      0.00000
     18       3.1132      0.00000
     19       3.4708      0.00000
     20       3.6676      0.00000
     21       3.9443      0.00000
     22       4.1706      0.00000
     23       4.7274      0.00000
     24       4.9668      0.00000


--------------------------------------------------------------------------------------------------------


 soft charge-density along one line, spin component           1
         0         1         2         3         4         5         6         7         8         9
 total charge-density along one line
 
 soft charge-density along one line, spin component           2
         0         1         2         3         4         5         6         7         8         9
 total charge-density along one line
 
 pseudopotential strength for first ion, spin component:           1
  8.780  14.977   0.000   0.001   0.000   0.000   0.004   0.001
 14.977  25.545   0.000   0.002   0.000   0.001   0.006   0.001
  0.000   0.000   1.988  -0.000  -0.000   5.787  -0.000  -0.000
  0.001   0.002  -0.000   1.988  -0.000  -0.000   5.787  -0.000
  0.000   0.000  -0.000  -0.000   1.988  -0.000  -0.000   5.787
  0.000   0.001   5.787  -0.000  -0.000  16.731  -0.000  -0.001
  0.004   0.006  -0.000   5.787  -0.000  -0.000  16.732  -0.000
  0.001   0.001  -0.000  -0.000   5.787  -0.001  -0.000  16.730
 pseudopotential strength for first ion, spin component:           2
  8.780  14.977   0.000   0.001   0.000   0.000   0.004   0.001
 14.977  25.545   0.000   0.002   0.000   0.001   0.006   0.001
  0.000   0.000   1.988  -0.000  -0.000   5.787  -0.000  -0.000
  0.001   0.002  -0.000   1.988  -0.000  -0.000   5.787  -0.000
  0.000   0.000  -0.000  -0.000   1.988  -0.000  -0.000   5.787
  0.000   0.001   5.787  -0.000  -0.000  16.731  -0.000  -0.001
  0.004   0.006  -0.000   5.787  -0.000  -0.000  16.732  -0.000
  0.001   0.001  -0.000  -0.000   5.787  -0.001  -0.000  16.730
 total augmentation occupancy for first ion, spin component:           1
  3.362  -0.815  -0.003  -0.064  -0.005   0.000   0.007   0.001
 -0.815   0.243  -0.003   0.009  -0.005   0.000  -0.000   0.000
 -0.003  -0.003   1.146   0.010  -0.006  -0.070  -0.001   0.002
 -0.064   0.009   0.010   1.024   0.018  -0.001  -0.060  -0.001
 -0.005  -0.005  -0.006   0.018   1.139   0.002  -0.001  -0.068
  0.000   0.000  -0.070  -0.001   0.002   0.005   0.000  -0.000
  0.007  -0.000  -0.001  -0.060  -0.001   0.000   0.004   0.000
  0.001   0.000   0.002  -0.001  -0.068  -0.000   0.000   0.004
 total augmentation occupancy for first ion, spin component:           2
  0.000  -0.000  -0.000   0.000  -0.000   0.000  -0.000   0.000
 -0.000   0.000   0.000  -0.000   0.000  -0.000   0.000  -0.000
 -0.000   0.000  -0.000  -0.000  -0.000   0.000  -0.000   0.000
  0.000  -0.000  -0.000   0.000  -0.000   0.000  -0.000   0.000
 -0.000   0.000  -0.000  -0.000  -0.000   0.000  -0.000   0.000
  0.000  -0.000   0.000   0.000   0.000  -0.000   0.000  -0.000
 -0.000   0.000  -0.000  -0.000  -0.000   0.000  -0.000   0.000
  0.000  -0.000   0.000   0.000   0.000  -0.000   0.000  -0.000


------------------------ aborting loop because EDIFF is reached ----------------------------------------


    CHARGE:  cpu time    0.1969: real time    0.1968
    FORLOC:  cpu time    0.0018: real time    0.0334
    FORNL :  cpu time    0.5746: real time    0.7252
    STRESS:  cpu time    1.2274: real time    1.2983
    FORCOR:  cpu time    0.0656: real time    0.0961
    FORHAR:  cpu time    0.0078: real time    0.0254
    MIXING:  cpu time    0.0031: real time    0.0031
    OFIELD:  cpu time    0.0005: real time    0.0236

 ---------------------------------------------------------------------------------------------

         DFTD3 V3.0 Rev 1        
 IVDW         = 12
 DF pbesol    
 parameters
 VDW_S6       =    1.0000
 VDW_S8       =    2.9491
 VDW_A1       =    0.4466
 VDW_A2       =    6.1742
 k1-k3        =   16.0000    1.3333   -4.0000
 VDW_RADIUS   =   50.2022 A
 VDW_CNRADIUS =   21.1671 A
 Edisp (eV)   -1.49820

 E6    (eV) :    -0.4536
 E8    (eV) :    -1.0446
 % E8        : 69.73
    FORVDW:  cpu time    0.0331: real time    1.4639

  FORCE on cell =-STRESS in cart. coord.  units (eV):
  Direction    XX          YY          ZZ          XY          YZ          ZX
  --------------------------------------------------------------------------------------
  Alpha Z    -2.39806    -2.39806    -2.39806
  Ewald    2344.11229  2344.30786 -2777.18907    -0.18607     0.38603     0.75616
  Hartree  2435.20917  2434.30407 -2406.82754     0.78427    -0.27232    -0.45585
  E(xc)     -87.01287   -86.99116   -86.40718    -0.01842    -0.10082    -0.17520
  Local   -5093.47494 -5092.09609  4872.97570    -1.17944    -0.84254    -1.55488
  n-local   314.10748   313.76758   306.35839     0.29094     1.09132     1.89554
  augment   -54.10663   -54.01903   -52.90253    -0.07563    -0.23141    -0.40060
  Kinetic   145.04808   144.61314   147.32115     0.38050    -0.03211    -0.07494
  Fock        0.00000     0.00000     0.00000     0.00000     0.00000     0.00000
  vdW        -1.48345    -1.48880    -0.94974     0.00465     0.00380     0.00653
  -------------------------------------------------------------------------------------
  Total       0.00106    -0.00048    -0.01889     0.00080     0.00195    -0.00324
  in kB       0.00435    -0.00195    -0.07731     0.00327     0.00796    -0.01325
  external pressure =       -0.02 kB  Pullay stress =        0.00 kB


 VOLUME and BASIS-vectors are now :
 -----------------------------------------------------------------------------
  energy-cutoff  :      700.00
  volume of cell :      391.50
      direct lattice vectors                 reciprocal lattice vectors
     4.240033040 -0.030346118  0.000000000     0.236825747  0.136722283  0.000000000
    -2.146266620  3.717690946  0.000000000     0.001933120  0.270100179  0.000000000
     0.000000000  0.000000000 24.939699173     0.000000000  0.000000000  0.040096715

  length of vectors
     4.240141633  4.292748115 24.939699173     0.273458255  0.270107097  0.040096715


 FORCES acting on ions
    electron-ion (+dipol)            ewald-force                    non-local-force                 convergence-correction
 -----------------------------------------------------------------------------------------------
   -.114E+01 -.665E+00 0.128E+03   0.914E+00 0.531E+00 -.129E+03   0.232E+00 0.135E+00 0.102E+01   0.234E-05 0.135E-05 0.137E-04
   -.252E+01 -.144E+01 -.130E+03   0.236E+01 0.135E+01 0.133E+03   0.167E+00 0.966E-01 -.242E+01   0.113E-07 0.137E-07 -.263E-04
   0.141E+01 0.817E+00 0.327E+02   -.125E+01 -.724E+00 -.317E+02   -.161E+00 -.933E-01 -.101E+01   -.141E-05 -.818E-06 0.293E-04
   0.160E+01 0.905E+00 -.433E+02   -.174E+01 -.982E+00 0.468E+02   0.137E+00 0.758E-01 -.354E+01   0.173E-05 0.992E-06 0.292E-04
   -.742E+00 -.426E+00 0.312E+03   0.454E+00 0.260E+00 -.318E+03   0.289E+00 0.166E+00 0.566E+01   -.377E-05 -.218E-05 -.318E-04
   0.877E+00 0.511E+00 -.294E+03   -.738E+00 -.430E+00 0.300E+03   -.140E+00 -.815E-01 -.514E+01   -.171E-06 -.131E-06 -.485E-04
 -----------------------------------------------------------------------------------------------
   -.524E+00 -.299E+00 0.544E+01   -.111E-15 -.361E-14 -.568E-13   0.524E+00 0.299E+00 -.544E+01   -.128E-05 -.773E-06 -.345E-04
 
 
 POSITION                                       TOTAL-FORCE (eV/Angst)
 -----------------------------------------------------------------------------------
      0.04005      2.50307      2.52400         0.000015     -0.000151     -0.000112
      0.23532      2.61076      8.07896        -0.000602     -0.000110      0.000157
      1.82014      1.05240      4.27479         0.000120     -0.000108      0.000184
     -0.32378      2.29307      5.36010         0.000257      0.000136     -0.000292
      2.16785      1.25318      1.46932         0.000217     -0.000165      0.000901
      2.34264      1.34902      8.94913        -0.000007      0.000397     -0.000837
 -----------------------------------------------------------------------------------
    total drift:                               -0.000059     -0.000032      0.000012


--------------------------------------------------------------------------------------------------------



  FREE ENERGIE OF THE ION-ELECTRON SYSTEM (eV)
  ---------------------------------------------------
  free  energy   TOTEN  =       -26.76371095 eV

  energy  without entropy=      -26.76365199  energy(sigma->0) =      -26.76368147
 


--------------------------------------------------------------------------------------------------------


    POTLOK:  cpu time    0.0755: real time    0.3152


--------------------------------------------------------------------------------------------------------




--------------------------------------------------------------------------------------------------------


  
 reached required accuracy - stopping structural energy minimisation
     LOOP+:  cpu time  187.2107: real time  198.9493
    4ORBIT:  cpu time    0.0002: real time    0.1036

 total amount of memory used by VASP MPI-rank0   104505. kBytes
=======================================================================

   base      :      30000. kBytes
   nonl-proj :      42434. kBytes
   fftplans  :       3400. kBytes
   grid      :       9012. kBytes
   one-center:         16. kBytes
   wavefun   :      19643. kBytes
 
  
  
 General timing and accounting informations for this job:
 ========================================================
  
                  Total CPU time used (sec):      201.867
                            User time (sec):      195.421
                          System time (sec):        6.446
                         Elapsed time (sec):      225.139
  
                   Maximum memory used (kb):      164472.
                   Average memory used (kb):           0.
  
                          Minor page faults:       182515
                          Major page faults:           20
                 Voluntary context switches:        15593
