<?xml version="1.0" encoding="ISO-8859-1"?>
<modeling>
 <generator>
  <i name="program" type="string">vasp </i>
  <i name="version" type="string">5.4.4.18Apr17-6-g9f103f2a35  </i>
  <i name="subversion" type="string">(build Dec 09 2020 13:45:19) complex            parallel </i>
  <i name="platform" type="string">LinuxIFC </i>
  <i name="date" type="string">2021 04 07 </i>
  <i name="time" type="string">23:40:01 </i>
 </generator>
 <incar>
  <i type="int" name="ISTART">     0</i>
  <i type="string" name="PREC">accurate</i>
  <i type="string" name="ALGO"> Normal</i>
  <i type="int" name="ISPIN">     2</i>
  <i type="int" name="ICHARG">     2</i>
  <i type="int" name="NELM">   100</i>
  <i type="int" name="NELMIN">     4</i>
  <i type="int" name="IBRION">     2</i>
  <i name="EDIFF">      0.00000010</i>
  <i name="EDIFFG">     -0.00100000</i>
  <i type="int" name="NSW">   100</i>
  <i type="int" name="ISIF">     3</i>
  <i type="int" name="ISYM">    -1</i>
  <i name="ENCUT">    700.00000000</i>
  <i name="POTIM">      0.20000000</i>
  <i type="logical" name="LREAL"> F  </i>
  <i type="int" name="ISMEAR">     0</i>
  <i name="SIGMA">      0.05000000</i>
  <i name="KSPACING">      0.25000000</i>
  <i type="logical" name="LWAVE"> F  </i>
  <i type="logical" name="LCHARG"> T  </i>
  <v type="int" name="KPOINT_BSE">    -1     0     0     0</v>
  <i type="int" name="NELM">   100</i>
  <i type="string" name="GGA"> PS</i>
  <i type="logical" name="LDIPOL"> T  </i>
  <i type="int" name="IDIPOL">     3</i>
  <v name="DIPOL">      0.50000000      0.50000000      0.20000000</v>
 </incar>
 <structure name="primitive_cell" >
  <crystal>
   <varray name="basis" >
    <v>       4.24003304      -0.03034612       0.00000000 </v>
    <v>      -2.14626662       3.71769095       0.00000000 </v>
    <v>       0.00000000       0.00000000      24.93969917 </v>
   </varray>
   <i name="volume">    391.50343712 </i>
   <varray name="rec_basis" >
    <v>       0.23682575       0.13672228       0.00000000 </v>
    <v>       0.00193312       0.27010018       0.00000000 </v>
    <v>       0.00000000       0.00000000       0.04009671 </v>
   </varray>
  </crystal>
  <varray name="positions" >
   <v>       0.35170961      -0.32384233       0.10120431 </v>
   <v>      -0.31525960       0.34267459       0.05891482 </v>
   <v>       0.23683484      -0.38126780       0.21492259 </v>
   <v>      -0.42505801       0.28777146       0.17140490 </v>
   <v>       0.41267842      -0.29437885       0.32393989 </v>
   <v>      -0.26076235       0.36889866       0.35883085 </v>
  </varray>
 </structure>
 <varray name="primitive_index" >
  <v type="int" >        1 </v>
  <v type="int" >        5 </v>
  <v type="int" >        4 </v>
  <v type="int" >        3 </v>
  <v type="int" >        2 </v>
  <v type="int" >        6 </v>
 </varray>
 <kpoints>
  <generation param="Gamma">
   <v type="int" name="divisions">       7        7        2 </v>
   <v name="usershift">      0.00000000       0.00000000       0.00000000 </v>
   <v name="genvec1">      0.14285714      -0.00000000       0.00000000 </v>
   <v name="genvec2">      0.00000000       0.14285714       0.00000000 </v>
   <v name="genvec3">      0.00000000       0.00000000       0.50000000 </v>
   <v name="shift">      0.00000000       0.00000000       0.00000000 </v>
  </generation>
  <varray name="kpointlist" >
   <v>       0.00000000       0.00000000       0.00000000 </v>
   <v>       0.14285714      -0.00000000       0.00000000 </v>
   <v>       0.28571429       0.00000000       0.00000000 </v>
   <v>       0.42857143       0.00000000       0.00000000 </v>
   <v>      -0.42857143      -0.00000000       0.00000000 </v>
   <v>      -0.28571429       0.00000000       0.00000000 </v>
   <v>      -0.14285714       0.00000000       0.00000000 </v>
   <v>       0.00000000       0.14285714       0.00000000 </v>
   <v>       0.14285714       0.14285714       0.00000000 </v>
   <v>       0.28571429       0.14285714       0.00000000 </v>
   <v>       0.42857143       0.14285714       0.00000000 </v>
   <v>      -0.42857143       0.14285714       0.00000000 </v>
   <v>      -0.28571429       0.14285714       0.00000000 </v>
   <v>      -0.14285714       0.14285714       0.00000000 </v>
   <v>      -0.00000000       0.28571429       0.00000000 </v>
   <v>       0.14285714       0.28571429       0.00000000 </v>
   <v>       0.28571429       0.28571429       0.00000000 </v>
   <v>       0.42857143       0.28571429       0.00000000 </v>
   <v>      -0.42857143       0.28571429       0.00000000 </v>
   <v>      -0.28571429       0.28571429       0.00000000 </v>
   <v>      -0.14285714       0.28571429       0.00000000 </v>
   <v>       0.00000000       0.42857143       0.00000000 </v>
   <v>       0.14285714       0.42857143       0.00000000 </v>
   <v>       0.28571429       0.42857143       0.00000000 </v>
   <v>       0.42857143       0.42857143       0.00000000 </v>
   <v>      -0.42857143       0.42857143       0.00000000 </v>
   <v>      -0.28571429       0.42857143       0.00000000 </v>
   <v>      -0.14285714       0.42857143       0.00000000 </v>
   <v>       0.00000000      -0.42857143       0.00000000 </v>
   <v>       0.14285714      -0.42857143       0.00000000 </v>
   <v>       0.28571429      -0.42857143       0.00000000 </v>
   <v>       0.42857143      -0.42857143       0.00000000 </v>
   <v>      -0.42857143      -0.42857143       0.00000000 </v>
   <v>      -0.28571429      -0.42857143       0.00000000 </v>
   <v>      -0.14285714      -0.42857143       0.00000000 </v>
   <v>       0.00000000      -0.28571429       0.00000000 </v>
   <v>       0.14285714      -0.28571429       0.00000000 </v>
   <v>       0.28571429      -0.28571429       0.00000000 </v>
   <v>       0.42857143      -0.28571429       0.00000000 </v>
   <v>      -0.42857143      -0.28571429       0.00000000 </v>
   <v>      -0.28571429      -0.28571429       0.00000000 </v>
   <v>      -0.14285714      -0.28571429       0.00000000 </v>
   <v>      -0.00000000      -0.14285714       0.00000000 </v>
   <v>       0.14285714      -0.14285714       0.00000000 </v>
   <v>       0.28571429      -0.14285714       0.00000000 </v>
   <v>       0.42857143      -0.14285714       0.00000000 </v>
   <v>      -0.42857143      -0.14285714       0.00000000 </v>
   <v>      -0.28571429      -0.14285714       0.00000000 </v>
   <v>      -0.14285714      -0.14285714       0.00000000 </v>
   <v>       0.00000000       0.00000000       0.50000000 </v>
   <v>       0.14285714      -0.00000000       0.50000000 </v>
   <v>       0.28571429       0.00000000       0.50000000 </v>
   <v>       0.42857143       0.00000000       0.50000000 </v>
   <v>      -0.42857143      -0.00000000       0.50000000 </v>
   <v>      -0.28571429       0.00000000       0.50000000 </v>
   <v>      -0.14285714       0.00000000       0.50000000 </v>
   <v>       0.00000000       0.14285714       0.50000000 </v>
   <v>       0.14285714       0.14285714       0.50000000 </v>
   <v>       0.28571429       0.14285714       0.50000000 </v>
   <v>       0.42857143       0.14285714       0.50000000 </v>
   <v>      -0.42857143       0.14285714       0.50000000 </v>
   <v>      -0.28571429       0.14285714       0.50000000 </v>
   <v>      -0.14285714       0.14285714       0.50000000 </v>
   <v>      -0.00000000       0.28571429       0.50000000 </v>
   <v>       0.14285714       0.28571429       0.50000000 </v>
   <v>       0.28571429       0.28571429       0.50000000 </v>
   <v>       0.42857143       0.28571429       0.50000000 </v>
   <v>      -0.42857143       0.28571429       0.50000000 </v>
   <v>      -0.28571429       0.28571429       0.50000000 </v>
   <v>      -0.14285714       0.28571429       0.50000000 </v>
   <v>       0.00000000       0.42857143       0.50000000 </v>
   <v>       0.14285714       0.42857143       0.50000000 </v>
   <v>       0.28571429       0.42857143       0.50000000 </v>
   <v>       0.42857143       0.42857143       0.50000000 </v>
   <v>      -0.42857143       0.42857143       0.50000000 </v>
   <v>      -0.28571429       0.42857143       0.50000000 </v>
   <v>      -0.14285714       0.42857143       0.50000000 </v>
   <v>       0.00000000      -0.42857143       0.50000000 </v>
   <v>       0.14285714      -0.42857143       0.50000000 </v>
   <v>       0.28571429      -0.42857143       0.50000000 </v>
   <v>       0.42857143      -0.42857143       0.50000000 </v>
   <v>      -0.42857143      -0.42857143       0.50000000 </v>
   <v>      -0.28571429      -0.42857143       0.50000000 </v>
   <v>      -0.14285714      -0.42857143       0.50000000 </v>
   <v>       0.00000000      -0.28571429       0.50000000 </v>
   <v>       0.14285714      -0.28571429       0.50000000 </v>
   <v>       0.28571429      -0.28571429       0.50000000 </v>
   <v>       0.42857143      -0.28571429       0.50000000 </v>
   <v>      -0.42857143      -0.28571429       0.50000000 </v>
   <v>      -0.28571429      -0.28571429       0.50000000 </v>
   <v>      -0.14285714      -0.28571429       0.50000000 </v>
   <v>      -0.00000000      -0.14285714       0.50000000 </v>
   <v>       0.14285714      -0.14285714       0.50000000 </v>
   <v>       0.28571429      -0.14285714       0.50000000 </v>
   <v>       0.42857143      -0.14285714       0.50000000 </v>
   <v>      -0.42857143      -0.14285714       0.50000000 </v>
   <v>      -0.28571429      -0.14285714       0.50000000 </v>
   <v>      -0.14285714      -0.14285714       0.50000000 </v>
  </varray>
  <varray name="weights" >
   <v>       0.01020408 </v>
   <v>       0.01020408 </v>
   <v>       0.01020408 </v>
   <v>       0.01020408 </v>
   <v>       0.01020408 </v>
   <v>       0.01020408 </v>
   <v>       0.01020408 </v>
   <v>       0.01020408 </v>
   <v>       0.01020408 </v>
   <v>       0.01020408 </v>
   <v>       0.01020408 </v>
   <v>       0.01020408 </v>
   <v>       0.01020408 </v>
   <v>       0.01020408 </v>
   <v>       0.01020408 </v>
   <v>       0.01020408 </v>
   <v>       0.01020408 </v>
   <v>       0.01020408 </v>
   <v>       0.01020408 </v>
   <v>       0.01020408 </v>
   <v>       0.01020408 </v>
   <v>       0.01020408 </v>
   <v>       0.01020408 </v>
   <v>       0.01020408 </v>
   <v>       0.01020408 </v>
   <v>       0.01020408 </v>
   <v>       0.01020408 </v>
   <v>       0.01020408 </v>
   <v>       0.01020408 </v>
   <v>       0.01020408 </v>
   <v>       0.01020408 </v>
   <v>       0.01020408 </v>
   <v>       0.01020408 </v>
   <v>       0.01020408 </v>
   <v>       0.01020408 </v>
   <v>       0.01020408 </v>
   <v>       0.01020408 </v>
   <v>       0.01020408 </v>
   <v>       0.01020408 </v>
   <v>       0.01020408 </v>
   <v>       0.01020408 </v>
   <v>       0.01020408 </v>
   <v>       0.01020408 </v>
   <v>       0.01020408 </v>
   <v>       0.01020408 </v>
   <v>       0.01020408 </v>
   <v>       0.01020408 </v>
   <v>       0.01020408 </v>
   <v>       0.01020408 </v>
   <v>       0.01020408 </v>
   <v>       0.01020408 </v>
   <v>       0.01020408 </v>
   <v>       0.01020408 </v>
   <v>       0.01020408 </v>
   <v>       0.01020408 </v>
   <v>       0.01020408 </v>
   <v>       0.01020408 </v>
   <v>       0.01020408 </v>
   <v>       0.01020408 </v>
   <v>       0.01020408 </v>
   <v>       0.01020408 </v>
   <v>       0.01020408 </v>
   <v>       0.01020408 </v>
   <v>       0.01020408 </v>
   <v>       0.01020408 </v>
   <v>       0.01020408 </v>
   <v>       0.01020408 </v>
   <v>       0.01020408 </v>
   <v>       0.01020408 </v>
   <v>       0.01020408 </v>
   <v>       0.01020408 </v>
   <v>       0.01020408 </v>
   <v>       0.01020408 </v>
   <v>       0.01020408 </v>
   <v>       0.01020408 </v>
   <v>       0.01020408 </v>
   <v>       0.01020408 </v>
   <v>       0.01020408 </v>
   <v>       0.01020408 </v>
   <v>       0.01020408 </v>
   <v>       0.01020408 </v>
   <v>       0.01020408 </v>
   <v>       0.01020408 </v>
   <v>       0.01020408 </v>
   <v>       0.01020408 </v>
   <v>       0.01020408 </v>
   <v>       0.01020408 </v>
   <v>       0.01020408 </v>
   <v>       0.01020408 </v>
   <v>       0.01020408 </v>
   <v>       0.01020408 </v>
   <v>       0.01020408 </v>
   <v>       0.01020408 </v>
   <v>       0.01020408 </v>
   <v>       0.01020408 </v>
   <v>       0.01020408 </v>
   <v>       0.01020408 </v>
   <v>       0.01020408 </v>
  </varray>
 </kpoints>
 <parameters>
  <separator name="general" >
   <i type="string" name="SYSTEM">unknown system</i>
   <i type="logical" name="LCOMPAT"> F  </i>
  </separator>
  <separator name="electronic" >
   <i type="string" name="PREC">accura</i>
   <i name="ENMAX">    700.00000000</i>
   <i name="ENAUG">    380.51300000</i>
   <i name="EDIFF">      0.00000010</i>
   <i type="int" name="IALGO">    38</i>
   <i type="int" name="IWAVPR">    11</i>
   <i type="int" name="NBANDS">    24</i>
   <i name="NELECT">     24.00000000</i>
   <i type="int" name="TURBO">     0</i>
   <i type="int" name="IRESTART">     0</i>
   <i type="int" name="NREBOOT">     0</i>
   <i type="int" name="NMIN">     0</i>
   <i name="EREF">      0.00000000</i>
   <separator name="electronic smearing" >
    <i type="int" name="ISMEAR">     0</i>
    <i name="SIGMA">      0.05000000</i>
    <i name="KSPACING">      0.25000000</i>
    <i type="logical" name="KGAMMA"> T  </i>
   </separator>
   <separator name="electronic projectors" >
    <i type="logical" name="LREAL"> F  </i>
    <v name="ROPT">      0.00000000      0.00000000</v>
    <i type="int" name="LMAXPAW">  -100</i>
    <i type="int" name="LMAXMIX">     2</i>
    <i type="logical" name="NLSPLINE"> F  </i>
   </separator>
   <separator name="electronic startup" >
    <i type="int" name="ISTART">     0</i>
    <i type="int" name="ICHARG">     2</i>
    <i type="int" name="INIWAV">     1</i>
   </separator>
   <separator name="electronic spin" >
    <i type="int" name="ISPIN">     2</i>
    <i type="logical" name="LNONCOLLINEAR"> F  </i>
    <v name="MAGMOM">      1.00000000      1.00000000      1.00000000      1.00000000      1.00000000      1.00000000</v>
    <i name="NUPDOWN">     -1.00000000</i>
    <i type="logical" name="LSORBIT"> F  </i>
    <v name="SAXIS">      0.00000000      0.00000000      1.00000000</v>
    <i type="logical" name="LSPIRAL"> F  </i>
    <v name="QSPIRAL">      0.00000000      0.00000000      0.00000000</v>
    <i type="logical" name="LZEROZ"> F  </i>
   </separator>
   <separator name="electronic exchange-correlation" >
    <i type="logical" name="LASPH"> F  </i>
    <i type="logical" name="LMETAGGA"> F  </i>
   </separator>
   <separator name="electronic convergence" >
    <i type="int" name="NELM">   100</i>
    <i type="int" name="NELMDL">    -5</i>
    <i type="int" name="NELMIN">     4</i>
    <i name="ENINI">    700.00000000</i>
    <separator name="electronic convergence detail" >
     <i type="logical" name="LDIAG"> T  </i>
     <i type="logical" name="LSUBROT"> F  </i>
     <i name="WEIMIN">      0.00100000</i>
     <i name="EBREAK">      0.00000000</i>
     <i name="DEPER">      0.30000000</i>
     <i type="int" name="NRMM">     4</i>
     <i name="TIME">      0.40000000</i>
    </separator>
   </separator>
   <separator name="electronic mixer" >
    <i name="AMIX">      0.40000000</i>
    <i name="BMIX">      1.00000000</i>
    <i name="AMIN">      0.10000000</i>
    <i name="AMIX_MAG">      1.60000000</i>
    <i name="BMIX_MAG">      1.00000000</i>
    <separator name="electronic mixer details" >
     <i type="int" name="IMIX">     4</i>
     <i type="logical" name="MIXFIRST"> F  </i>
     <i type="int" name="MAXMIX">   -45</i>
     <i name="WC">    100.00000000</i>
     <i type="int" name="INIMIX">     1</i>
     <i type="int" name="MIXPRE">     1</i>
     <i type="int" name="MREMOVE">     5</i>
    </separator>
   </separator>
   <separator name="electronic dipolcorrection" >
    <i type="logical" name="LDIPOL"> T  </i>
    <i type="logical" name="LMONO"> F  </i>
    <i type="int" name="IDIPOL">     3</i>
    <i name="EPSILON">      1.00000000</i>
    <v name="DIPOL">      0.50000000      0.50000000      0.20000000</v>
    <i name="EFIELD">      0.00000000</i>
   </separator>
  </separator>
  <separator name="grids" >
   <i type="int" name="NGX">    40</i>
   <i type="int" name="NGY">    40</i>
   <i type="int" name="NGZ">   216</i>
   <i type="int" name="NGXF">    80</i>
   <i type="int" name="NGYF">    80</i>
   <i type="int" name="NGZF">   432</i>
   <i type="logical" name="ADDGRID"> F  </i>
  </separator>
  <separator name="ionic" >
   <i type="int" name="NSW">   100</i>
   <i type="int" name="IBRION">     2</i>
   <i type="int" name="MDALGO">     0</i>
   <i type="int" name="ISIF">     3</i>
   <i name="PSTRESS">      0.00000000</i>
   <i name="EDIFFG">     -0.00100000</i>
   <i type="int" name="NFREE">     1</i>
   <i name="POTIM">      0.20000000</i>
   <i name="SMASS">     -3.00000000</i>
   <i name="SCALEE">      1.00000000</i>
  </separator>
  <separator name="ionic md" >
   <i name="TEBEG">      0.00010000</i>
   <i name="TEEND">      0.00010000</i>
   <i type="int" name="NBLOCK">     1</i>
   <i type="int" name="KBLOCK">   100</i>
   <i type="int" name="NPACO">   256</i>
   <i name="APACO">     16.00000000</i>
  </separator>
  <separator name="symmetry" >
   <i type="int" name="ISYM">    -1</i>
   <i name="SYMPREC">      0.00001000</i>
  </separator>
  <separator name="dos" >
   <i type="int" name="LORBIT">     0</i>
   <v name="RWIGS">     -1.00000000     -1.00000000</v>
   <i type="int" name="NEDOS">   301</i>
   <i name="EMIN">     10.00000000</i>
   <i name="EMAX">    -10.00000000</i>
   <i name="EFERMI">      0.00000000</i>
  </separator>
  <separator name="writing" >
   <i type="int" name="NWRITE">     2</i>
   <i type="logical" name="LWAVE"> F  </i>
   <i type="logical" name="LDOWNSAMPLE"> F  </i>
   <i type="logical" name="LCHARG"> T  </i>
   <i type="logical" name="LPARD"> F  </i>
   <i type="logical" name="LVTOT"> F  </i>
   <i type="logical" name="LVHAR"> F  </i>
   <i type="logical" name="LELF"> F  </i>
   <i type="logical" name="LOPTICS"> F  </i>
   <v name="STM">      0.00000000      0.00000000      0.00000000      0.00000000      0.00000000      0.00000000      0.00000000</v>
  </separator>
  <separator name="performance" >
   <i type="int" name="NPAR">     8</i>
   <i type="int" name="NSIM">     4</i>
   <i type="int" name="NBLK">    -1</i>
   <i type="logical" name="LPLANE"> T  </i>
   <i type="logical" name="LSCALAPACK"> T  </i>
   <i type="logical" name="LSCAAWARE"> F  </i>
   <i type="logical" name="LSCALU"> F  </i>
   <i type="logical" name="LASYNC"> F  </i>
   <i type="logical" name="LORBITALREAL"> F  </i>
  </separator>
  <separator name="miscellaneous" >
   <i type="int" name="IDIOT">     3</i>
   <i type="int" name="ISPECIAL">     0</i>
   <i type="logical" name="LMUSIC"> F  </i>
   <v name="POMASS">     26.98100000    121.75000000</v>
   <v name="DARWINR">      0.00000000      0.00000000</v>
   <v name="DARWINV">      1.00000000      1.00000000</v>
   <i type="logical" name="LCORR"> T  </i>
  </separator>
  <i type="logical" name="GGA_COMPAT"> T  </i>
  <i type="logical" name="LBERRY"> F  </i>
  <i type="int" name="ICORELEVEL">     0</i>
  <i type="logical" name="LDAU"> F  </i>
  <i type="int" name="I_CONSTRAINED_M">     0</i>
  <separator name="electronic exchange-correlation" >
   <i type="string" name="GGA">PS</i>
   <i type="int" name="VOSKOWN">     0</i>
   <i type="logical" name="LHFCALC"> F  </i>
   <i type="string" name="PRECFOCK"></i>
   <i type="logical" name="LSYMGRAD"> F  </i>
   <i type="logical" name="LHFONE"> F  </i>
   <i type="logical" name="LRHFCALC"> F  </i>
   <i type="logical" name="LTHOMAS"> F  </i>
   <i type="logical" name="LMODELHF"> F  </i>
   <i name="ENCUT4O">     -1.00000000</i>
   <i type="int" name="EXXOEP">     0</i>
   <i type="int" name="FOURORBIT">     0</i>
   <i name="AEXX">      0.00000000</i>
   <i name="HFALPHA">      0.00000000</i>
   <i name="MCALPHA">      0.00000000</i>
   <i name="ALDAX">      1.00000000</i>
   <i name="AGGAX">      1.00000000</i>
   <i name="ALDAC">      1.00000000</i>
   <i name="AGGAC">      1.00000000</i>
   <i type="int" name="NKREDX">     1</i>
   <i type="int" name="NKREDY">     1</i>
   <i type="int" name="NKREDZ">     1</i>
   <i type="logical" name="SHIFTRED"> F  </i>
   <i type="logical" name="ODDONLY"> F  </i>
   <i type="logical" name="EVENONLY"> F  </i>
   <i type="int" name="LMAXFOCK">     0</i>
   <i type="int" name="NMAXFOCKAE">     0</i>
   <i type="logical" name="LFOCKAEDFT"> F  </i>
   <i name="HFSCREEN">      0.00000000</i>
   <i name="HFSCREENC">      0.00000000</i>
   <i type="int" name="NBANDSGWLOW">     0</i>
  </separator>
  <separator name="vdW DFT" >
   <i type="logical" name="LUSE_VDW"> F  </i>
   <i name="Zab_VDW">     -0.84910000</i>
   <i name="PARAM1">      0.12340000</i>
   <i name="PARAM2">      1.00000000</i>
   <i name="PARAM3">      0.00000000</i>
  </separator>
  <separator name="model GW" >
   <i type="int" name="MODEL_GW">     0</i>
   <i name="MODEL_EPS0">     39.15034371</i>
   <i name="MODEL_ALPHA">      1.00000000</i>
  </separator>
  <separator name="linear response parameters" >
   <i type="logical" name="LEPSILON"> F  </i>
   <i type="logical" name="LRPA"> F  </i>
   <i type="logical" name="LNABLA"> F  </i>
   <i type="logical" name="LVEL"> F  </i>
   <i type="int" name="KINTER">     0</i>
   <i name="CSHIFT">      0.10000000</i>
   <i name="OMEGAMAX">     -1.00000000</i>
   <i name="DEG_THRESHOLD">      0.00200000</i>
   <i name="RTIME">     -0.10000000</i>
   <i name="WPLASMAI">      0.00000000</i>
   <v name="DFIELD">      0.00000000      0.00000000      0.00000000</v>
   <v name="WPLASMA">      0.00000000      0.00000000      0.00000000      0.00000000      0.00000000      0.00000000      0.00000000      0.00000000      0.00000000</v>
  </separator>
  <separator name="orbital magnetization" >
   <i type="logical" name="NUCIND"> F  </i>
   <v name="MAGPOS">      0.00000000      0.00000000      0.00000000</v>
   <i type="logical" name="LNICSALL"> T  </i>
   <i type="logical" name="ORBITALMAG"> F  </i>
   <i type="logical" name="LMAGBLOCH"> F  </i>
   <i type="logical" name="LCHIMAG"> F  </i>
   <i type="logical" name="LGAUGE"> T  </i>
   <i type="int" name="MAGATOM">     0</i>
   <v name="MAGDIPOL">      0.00000000      0.00000000      0.00000000</v>
   <v name="AVECCONST">      0.00000000      0.00000000      0.00000000</v>
  </separator>
  <separator name="response functions" >
   <i type="logical" name="LADDER"> F  </i>
   <i type="logical" name="LRPAFORCE"> F  </i>
   <i type="logical" name="LFXC"> F  </i>
   <i type="logical" name="LHARTREE"> T  </i>
   <i type="int" name="IBSE">     0</i>
   <v type="int" name="KPOINT">    -1     0     0     0</v>
   <i type="logical" name="LTCTE"> F  </i>
   <i type="logical" name="LTETE"> F  </i>
   <i type="logical" name="LTRIPLET"> F  </i>
   <i type="logical" name="LFXCEPS"> F  </i>
   <i type="logical" name="LFXHEG"> F  </i>
   <i type="int" name="NATURALO">     2</i>
   <i type="logical" name="L2ORDER"> F  </i>
   <i type="logical" name="LMP2LT"> F  </i>
   <i type="logical" name="LUSEW"> F  </i>
   <i name="ENCUTGW">     -2.00000000</i>
   <i name="ENCUTGWSOFT">     -2.00000000</i>
   <i name="ENCUTLF">     -1.00000000</i>
   <i type="int" name="LMAXMP2">    -1</i>
   <i name="SCISSOR">      0.00000000</i>
   <i type="int" name="NOMEGA">     0</i>
   <i type="int" name="NOMEGAR">     0</i>
   <i type="int" name="NBANDSGW">    -1</i>
   <i type="int" name="NBANDSO">    -1</i>
   <i type="int" name="NBANDSV">    -1</i>
   <i type="int" name="NELM">   100</i>
   <i type="int" name="NELMHF">     1</i>
   <i type="int" name="DIM">     3</i>
   <i type="int" name="ANTIRES">     0</i>
   <i name="OMEGAMAX">    -30.00000000</i>
   <i name="OMEGAMIN">    -30.00000000</i>
   <i name="OMEGATL">   -200.00000000</i>
   <i type="int" name="OMEGAGRID">   140</i>
   <i name="CSHIFT">     -0.10000000</i>
   <i type="logical" name="SELFENERGY"> F  </i>
   <i type="logical" name="LSPECTRAL"> F  </i>
   <i type="logical" name="LSPECTRALGW"> F  </i>
   <i type="logical" name="LSINGLES"> F  </i>
   <i type="logical" name="LFERMIGW"> F  </i>
   <i type="logical" name="ODDONLYGW"> F  </i>
   <i type="logical" name="EVENONLYGW"> F  </i>
   <i type="int" name="NKREDLFX">     1</i>
   <i type="int" name="NKREDLFY">     1</i>
   <i type="int" name="NKREDLFZ">     1</i>
   <i type="int" name="MAXMEM">  2800</i>
   <i type="int" name="TELESCOPE">     0</i>
   <i type="int" name="TAUPAR">     1</i>
   <i type="int" name="OMEGAPAR">    -1</i>
   <i name="LAMBDA">      1.00000000</i>
  </separator>
  <separator name="External order field" >
   <i name="OFIELD_KAPPA">      0.00000000</i>
   <v name="OFIELD_K">      0.00000000      0.00000000      0.00000000</v>
   <i name="OFIELD_Q6_NEAR">      0.00000000</i>
   <i name="OFIELD_Q6_FAR">      0.00000000</i>
   <i name="OFIELD_A">      0.00000000</i>
  </separator>
 </parameters>
 <atominfo>
  <atoms>       6 </atoms>
  <types>       2 </types>
  <array name="atoms" >
   <dimension dim="1">ion</dimension>
   <field type="string">element</field>
   <field type="int">atomtype</field>
   <set>
    <rc><c>Al</c><c>   1</c></rc>
    <rc><c>Al</c><c>   1</c></rc>
    <rc><c>Al</c><c>   1</c></rc>
    <rc><c>Sb</c><c>   2</c></rc>
    <rc><c>Sb</c><c>   2</c></rc>
    <rc><c>Sb</c><c>   2</c></rc>
   </set>
  </array>
  <array name="atomtypes" >
   <dimension dim="1">type</dimension>
   <field type="int">atomspertype</field>
   <field type="string">element</field>
   <field>mass</field>
   <field>valence</field>
   <field type="string">pseudopotential</field>
   <set>
    <rc><c>   3</c><c>Al</c><c>     26.98100000</c><c>      3.00000000</c><c>  PAW_PBE Al 04Jan2001                  </c></rc>
    <rc><c>   3</c><c>Sb</c><c>    121.75000000</c><c>      5.00000000</c><c>  PAW_PBE Sb 06Sep2000                  </c></rc>
   </set>
  </array>
 </atominfo>
 <structure name="initialpos" >
  <crystal>
   <varray name="basis" >
    <v>       4.24003304      -0.03034612       0.00000000 </v>
    <v>      -2.14626662       3.71769095       0.00000000 </v>
    <v>       0.00000000       0.00000000      24.93969917 </v>
   </varray>
   <i name="volume">    391.50343712 </i>
   <varray name="rec_basis" >
    <v>       0.23682575       0.13672228       0.00000000 </v>
    <v>       0.00193312       0.27010018       0.00000000 </v>
    <v>       0.00000000       0.00000000       0.04009671 </v>
   </varray>
  </crystal>
  <varray name="positions" >
   <v>       0.35170961       0.67615767       0.10120431 </v>
   <v>       0.41267842       0.70562115       0.32393989 </v>
   <v>       0.57494199       0.28777146       0.17140490 </v>
   <v>       0.23683484       0.61873220       0.21492259 </v>
   <v>       0.68474040       0.34267459       0.05891482 </v>
   <v>       0.73923765       0.36889866       0.35883085 </v>
  </varray>
 </structure>
 <calculation>
  <scstep>
   <time name="dav">    4.56    8.60</time>
   <time name="total">    4.67    9.13</time>
   <dipole>
    <v name="dipole">      0.00000000       0.00000000       0.00000820 </v>
    <i name="Tr[quadrupol]">    -76.44656848 </i>
    <i name="Echarged">      0.00000000 </i>
    <i name="Edipol_quadrupol">      0.00000000 </i>
    <i name="Eion">      0.00000000 </i>
   </dipole>
   <energy>
    <i name="alphaZ">     -2.39807722 </i>
    <i name="ewald">   1911.23135350 </i>
    <i name="hartreedc">  -2443.49004923 </i>
    <i name="XCdc">   -211.99003796 </i>
    <i name="pawpsdc">    683.11760500 </i>
    <i name="pawaedc">   -429.60803766 </i>
    <i name="eentropy">     -0.00430823 </i>
    <i name="bandstr">      6.15559725 </i>
    <i name="atom">    609.46040274 </i>
    <i name="e_fr_energy">    122.47444818 </i>
    <i name="e_wo_entrp">    122.47875642 </i>
    <i name="e_0_energy">    122.47660230 </i>
   </energy>
  </scstep>
  <scstep>
   <time name="dav">    5.36    5.43</time>
   <time name="total">    5.37    5.43</time>
   <dipole>
    <v name="dipole">      0.00000000       0.00000000       0.00000820 </v>
    <i name="Tr[quadrupol]">    -76.44656848 </i>
    <i name="Echarged">      0.00000000 </i>
    <i name="Edipol_quadrupol">      0.00000000 </i>
    <i name="Eion">      0.00000000 </i>
   </dipole>
   <energy>
    <i name="e_fr_energy">    -12.62304586 </i>
    <i name="e_wo_entrp">    -12.62196223 </i>
    <i name="e_0_energy">    -12.62250404 </i>
   </energy>
  </scstep>
  <scstep>
   <time name="dav">    5.33    5.34</time>
   <time name="total">    5.33    5.34</time>
   <dipole>
    <v name="dipole">      0.00000000       0.00000000       0.00000820 </v>
    <i name="Tr[quadrupol]">    -76.44656848 </i>
    <i name="Echarged">      0.00000000 </i>
    <i name="Edipol_quadrupol">      0.00000000 </i>
    <i name="Eion">      0.00000000 </i>
   </dipole>
   <energy>
    <i name="e_fr_energy">    -24.04671998 </i>
    <i name="e_wo_entrp">    -24.04591708 </i>
    <i name="e_0_energy">    -24.04631853 </i>
   </energy>
  </scstep>
  <scstep>
   <time name="dav">    5.53    5.54</time>
   <time name="total">    5.54    5.55</time>
   <dipole>
    <v name="dipole">      0.00000000       0.00000000       0.00000820 </v>
    <i name="Tr[quadrupol]">    -76.44656848 </i>
    <i name="Echarged">      0.00000000 </i>
    <i name="Edipol_quadrupol">      0.00000000 </i>
    <i name="Eion">      0.00000000 </i>
   </dipole>
   <energy>
    <i name="e_fr_energy">    -24.45515919 </i>
    <i name="e_wo_entrp">    -24.45444914 </i>
    <i name="e_0_energy">    -24.45480416 </i>
   </energy>
  </scstep>
  <scstep>
   <time name="dav">    5.97    5.98</time>
   <time name="total">    6.17    7.94</time>
   <dipole>
    <v name="dipole">      0.00000000       0.00000000       0.00000820 </v>
    <i name="Tr[quadrupol]">    -76.44656848 </i>
    <i name="Echarged">      0.00000000 </i>
    <i name="Edipol_quadrupol">      0.00000000 </i>
    <i name="Eion">      0.00000000 </i>
   </dipole>
   <energy>
    <i name="e_fr_energy">    -24.46935781 </i>
    <i name="e_wo_entrp">    -24.46864761 </i>
    <i name="e_0_energy">    -24.46900271 </i>
   </energy>
  </scstep>
  <scstep>
   <time name="dav">    5.06    5.07</time>
   <time name="total">    5.33    6.56</time>
   <dipole>
    <v name="dipole">      0.00000000       0.00000000       0.19919368 </v>
    <i name="Tr[quadrupol]">    -76.55164223 </i>
    <i name="Echarged">      0.00000000 </i>
    <i name="Edipol_quadrupol">      0.00000000 </i>
    <i name="Eion">      0.00000000 </i>
   </dipole>
   <energy>
    <i name="e_fr_energy">    -21.37368088 </i>
    <i name="e_wo_entrp">    -21.36788830 </i>
    <i name="e_0_energy">    -21.37078459 </i>
   </energy>
  </scstep>
  <scstep>
   <time name="dav">    5.38    5.39</time>
   <time name="total">    5.66    6.03</time>
   <dipole>
    <v name="dipole">      0.00000000       0.00000000      -0.11201663 </v>
    <i name="Tr[quadrupol]">    -77.36016375 </i>
    <i name="Echarged">      0.00000000 </i>
    <i name="Edipol_quadrupol">      0.00000000 </i>
    <i name="Eion">      0.00000000 </i>
   </dipole>
   <energy>
    <i name="e_fr_energy">    -21.63794054 </i>
    <i name="e_wo_entrp">    -21.63711267 </i>
    <i name="e_0_energy">    -21.63752660 </i>
   </energy>
  </scstep>
  <scstep>
   <time name="dav">    5.16    5.18</time>
   <time name="total">    5.43    5.46</time>
   <dipole>
    <v name="dipole">      0.00000000       0.00000000       0.06534196 </v>
    <i name="Tr[quadrupol]">    -78.11571410 </i>
    <i name="Echarged">      0.00000000 </i>
    <i name="Edipol_quadrupol">      0.00000000 </i>
    <i name="Eion">      0.00000000 </i>
   </dipole>
   <energy>
    <i name="e_fr_energy">    -20.37517858 </i>
    <i name="e_wo_entrp">    -20.37262327 </i>
    <i name="e_0_energy">    -20.37390093 </i>
   </energy>
  </scstep>
  <scstep>
   <time name="dav">    5.43    5.47</time>
   <time name="total">    5.70    5.74</time>
   <dipole>
    <v name="dipole">      0.00000000       0.00000000       0.09106721 </v>
    <i name="Tr[quadrupol]">    -78.41528760 </i>
    <i name="Echarged">      0.00000000 </i>
    <i name="Edipol_quadrupol">      0.00000000 </i>
    <i name="Eion">      0.00000000 </i>
   </dipole>
   <energy>
    <i name="e_fr_energy">    -20.48074953 </i>
    <i name="e_wo_entrp">    -20.47665045 </i>
    <i name="e_0_energy">    -20.47869999 </i>
   </energy>
  </scstep>
  <scstep>
   <time name="dav">    5.24    5.25</time>
   <time name="total">    5.52    5.53</time>
   <dipole>
    <v name="dipole">      0.00000000       0.00000000       0.09872510 </v>
    <i name="Tr[quadrupol]">    -78.64261090 </i>
    <i name="Echarged">      0.00000000 </i>
    <i name="Edipol_quadrupol">      0.00000000 </i>
    <i name="Eion">      0.00000000 </i>
   </dipole>
   <energy>
    <i name="e_fr_energy">    -21.23604812 </i>
    <i name="e_wo_entrp">    -21.23343726 </i>
    <i name="e_0_energy">    -21.23474269 </i>
   </energy>
  </scstep>
  <scstep>
   <time name="dav">    4.95    4.96</time>
   <time name="total">    5.23    5.23</time>
   <dipole>
    <v name="dipole">      0.00000000       0.00000000       0.10012539 </v>
    <i name="Tr[quadrupol]">    -79.11211372 </i>
    <i name="Echarged">      0.00000000 </i>
    <i name="Edipol_quadrupol">      0.00000000 </i>
    <i name="Eion">      0.00000000 </i>
   </dipole>
   <energy>
    <i name="e_fr_energy">    -22.65409772 </i>
    <i name="e_wo_entrp">    -22.65374936 </i>
    <i name="e_0_energy">    -22.65392354 </i>
   </energy>
  </scstep>
  <scstep>
   <time name="dav">    4.75    4.75</time>
   <time name="total">    5.02    5.07</time>
   <dipole>
    <v name="dipole">      0.00000000       0.00000000       0.13370263 </v>
    <i name="Tr[quadrupol]">    -79.49308183 </i>
    <i name="Echarged">      0.00000000 </i>
    <i name="Edipol_quadrupol">      0.00000000 </i>
    <i name="Eion">      0.00000000 </i>
   </dipole>
   <energy>
    <i name="e_fr_energy">    -24.21267973 </i>
    <i name="e_wo_entrp">    -24.21212575 </i>
    <i name="e_0_energy">    -24.21240274 </i>
   </energy>
  </scstep>
  <scstep>
   <time name="dav">    4.66    4.67</time>
   <time name="total">    4.93    4.93</time>
   <dipole>
    <v name="dipole">      0.00000000       0.00000000       0.11984180 </v>
    <i name="Tr[quadrupol]">    -79.46733361 </i>
    <i name="Echarged">      0.00000000 </i>
    <i name="Edipol_quadrupol">      0.00000000 </i>
    <i name="Eion">      0.00000000 </i>
   </dipole>
   <energy>
    <i name="e_fr_energy">    -24.66499561 </i>
    <i name="e_wo_entrp">    -24.66490089 </i>
    <i name="e_0_energy">    -24.66494825 </i>
   </energy>
  </scstep>
  <scstep>
   <time name="dav">    4.91    4.92</time>
   <time name="total">    5.18    5.20</time>
   <dipole>
    <v name="dipole">      0.00000000       0.00000000       0.09845732 </v>
    <i name="Tr[quadrupol]">    -79.15674870 </i>
    <i name="Echarged">      0.00000000 </i>
    <i name="Edipol_quadrupol">      0.00000000 </i>
    <i name="Eion">      0.00000000 </i>
   </dipole>
   <energy>
    <i name="e_fr_energy">    -24.90848708 </i>
    <i name="e_wo_entrp">    -24.90796746 </i>
    <i name="e_0_energy">    -24.90822727 </i>
   </energy>
  </scstep>
  <scstep>
   <time name="dav">    5.11    5.12</time>
   <time name="total">    5.38    5.39</time>
   <dipole>
    <v name="dipole">      0.00000000       0.00000000       0.10663826 </v>
    <i name="Tr[quadrupol]">    -78.99260724 </i>
    <i name="Echarged">      0.00000000 </i>
    <i name="Edipol_quadrupol">      0.00000000 </i>
    <i name="Eion">      0.00000000 </i>
   </dipole>
   <energy>
    <i name="e_fr_energy">    -25.02053034 </i>
    <i name="e_wo_entrp">    -25.02045132 </i>
    <i name="e_0_energy">    -25.02049083 </i>
   </energy>
  </scstep>
  <scstep>
   <time name="dav">    4.78    4.79</time>
   <time name="total">    5.06    5.20</time>
   <dipole>
    <v name="dipole">      0.00000000       0.00000000       0.10925368 </v>
    <i name="Tr[quadrupol]">    -78.80146724 </i>
    <i name="Echarged">      0.00000000 </i>
    <i name="Edipol_quadrupol">      0.00000000 </i>
    <i name="Eion">      0.00000000 </i>
   </dipole>
   <energy>
    <i name="e_fr_energy">    -25.13030750 </i>
    <i name="e_wo_entrp">    -25.13025163 </i>
    <i name="e_0_energy">    -25.13027956 </i>
   </energy>
  </scstep>
  <scstep>
   <time name="dav">    4.89    4.89</time>
   <time name="total">    5.16    5.17</time>
   <dipole>
    <v name="dipole">      0.00000000       0.00000000       0.10632503 </v>
    <i name="Tr[quadrupol]">    -78.59058688 </i>
    <i name="Echarged">      0.00000000 </i>
    <i name="Edipol_quadrupol">      0.00000000 </i>
    <i name="Eion">      0.00000000 </i>
   </dipole>
   <energy>
    <i name="e_fr_energy">    -25.20186085 </i>
    <i name="e_wo_entrp">    -25.20180391 </i>
    <i name="e_0_energy">    -25.20183238 </i>
   </energy>
  </scstep>
  <scstep>
   <time name="dav">    5.26    5.28</time>
   <time name="total">    5.54    5.55</time>
   <dipole>
    <v name="dipole">      0.00000000       0.00000000       0.10702974 </v>
    <i name="Tr[quadrupol]">    -78.48707197 </i>
    <i name="Echarged">      0.00000000 </i>
    <i name="Edipol_quadrupol">      0.00000000 </i>
    <i name="Eion">      0.00000000 </i>
   </dipole>
   <energy>
    <i name="e_fr_energy">    -25.22004867 </i>
    <i name="e_wo_entrp">    -25.21999199 </i>
    <i name="e_0_energy">    -25.22002033 </i>
   </energy>
  </scstep>
  <scstep>
   <time name="dav">    5.22    5.26</time>
   <time name="total">    5.49    5.53</time>
   <dipole>
    <v name="dipole">      0.00000000       0.00000000       0.10714845 </v>
    <i name="Tr[quadrupol]">    -78.38903212 </i>
    <i name="Echarged">      0.00000000 </i>
    <i name="Edipol_quadrupol">      0.00000000 </i>
    <i name="Eion">      0.00000000 </i>
   </dipole>
   <energy>
    <i name="e_fr_energy">    -25.23067938 </i>
    <i name="e_wo_entrp">    -25.23062088 </i>
    <i name="e_0_energy">    -25.23065013 </i>
   </energy>
  </scstep>
  <scstep>
   <time name="dav">    5.08    5.09</time>
   <time name="total">    5.36    5.37</time>
   <dipole>
    <v name="dipole">      0.00000000       0.00000000       0.10762560 </v>
    <i name="Tr[quadrupol]">    -78.30668322 </i>
    <i name="Echarged">      0.00000000 </i>
    <i name="Edipol_quadrupol">      0.00000000 </i>
    <i name="Eion">      0.00000000 </i>
   </dipole>
   <energy>
    <i name="e_fr_energy">    -25.24207971 </i>
    <i name="e_wo_entrp">    -25.24202004 </i>
    <i name="e_0_energy">    -25.24204988 </i>
   </energy>
  </scstep>
  <scstep>
   <time name="dav">    5.07    5.08</time>
   <time name="total">    5.34    5.35</time>
   <dipole>
    <v name="dipole">      0.00000000       0.00000000       0.10902173 </v>
    <i name="Tr[quadrupol]">    -78.26708100 </i>
    <i name="Echarged">      0.00000000 </i>
    <i name="Edipol_quadrupol">      0.00000000 </i>
    <i name="Eion">      0.00000000 </i>
   </dipole>
   <energy>
    <i name="e_fr_energy">    -25.25079944 </i>
    <i name="e_wo_entrp">    -25.25074161 </i>
    <i name="e_0_energy">    -25.25077052 </i>
   </energy>
  </scstep>
  <scstep>
   <time name="dav">    5.21    5.22</time>
   <time name="total">    5.49    5.49</time>
   <dipole>
    <v name="dipole">      0.00000000       0.00000000       0.10956441 </v>
    <i name="Tr[quadrupol]">    -78.22736216 </i>
    <i name="Echarged">      0.00000000 </i>
    <i name="Edipol_quadrupol">      0.00000000 </i>
    <i name="Eion">      0.00000000 </i>
   </dipole>
   <energy>
    <i name="e_fr_energy">    -25.25909760 </i>
    <i name="e_wo_entrp">    -25.25903957 </i>
    <i name="e_0_energy">    -25.25906858 </i>
   </energy>
  </scstep>
  <scstep>
   <time name="dav">    5.33    5.34</time>
   <time name="total">    5.60    5.61</time>
   <dipole>
    <v name="dipole">      0.00000000       0.00000000       0.10964929 </v>
    <i name="Tr[quadrupol]">    -78.21304615 </i>
    <i name="Echarged">      0.00000000 </i>
    <i name="Edipol_quadrupol">      0.00000000 </i>
    <i name="Eion">      0.00000000 </i>
   </dipole>
   <energy>
    <i name="e_fr_energy">    -25.26254840 </i>
    <i name="e_wo_entrp">    -25.26248938 </i>
    <i name="e_0_energy">    -25.26251889 </i>
   </energy>
  </scstep>
  <scstep>
   <time name="dav">    5.12    5.13</time>
   <time name="total">    5.40    5.41</time>
   <dipole>
    <v name="dipole">      0.00000000       0.00000000       0.10987017 </v>
    <i name="Tr[quadrupol]">    -78.20297696 </i>
    <i name="Echarged">      0.00000000 </i>
    <i name="Edipol_quadrupol">      0.00000000 </i>
    <i name="Eion">      0.00000000 </i>
   </dipole>
   <energy>
    <i name="e_fr_energy">    -25.26419637 </i>
    <i name="e_wo_entrp">    -25.26413724 </i>
    <i name="e_0_energy">    -25.26416681 </i>
   </energy>
  </scstep>
  <scstep>
   <time name="dav">    5.11    5.12</time>
   <time name="total">    5.38    5.39</time>
   <dipole>
    <v name="dipole">      0.00000000       0.00000000       0.10985624 </v>
    <i name="Tr[quadrupol]">    -78.19064239 </i>
    <i name="Echarged">      0.00000000 </i>
    <i name="Edipol_quadrupol">      0.00000000 </i>
    <i name="Eion">      0.00000000 </i>
   </dipole>
   <energy>
    <i name="e_fr_energy">    -25.26503015 </i>
    <i name="e_wo_entrp">    -25.26497103 </i>
    <i name="e_0_energy">    -25.26500059 </i>
   </energy>
  </scstep>
  <scstep>
   <time name="dav">    5.38    5.38</time>
   <time name="total">    5.65    5.66</time>
   <dipole>
    <v name="dipole">      0.00000000       0.00000000       0.10971646 </v>
    <i name="Tr[quadrupol]">    -78.18556233 </i>
    <i name="Echarged">      0.00000000 </i>
    <i name="Edipol_quadrupol">      0.00000000 </i>
    <i name="Eion">      0.00000000 </i>
   </dipole>
   <energy>
    <i name="e_fr_energy">    -25.26527943 </i>
    <i name="e_wo_entrp">    -25.26522026 </i>
    <i name="e_0_energy">    -25.26524984 </i>
   </energy>
  </scstep>
  <scstep>
   <time name="dav">    5.37    5.37</time>
   <time name="total">    5.64    5.65</time>
   <dipole>
    <v name="dipole">      0.00000000       0.00000000       0.10951928 </v>
    <i name="Tr[quadrupol]">    -78.18153248 </i>
    <i name="Echarged">      0.00000000 </i>
    <i name="Edipol_quadrupol">      0.00000000 </i>
    <i name="Eion">      0.00000000 </i>
   </dipole>
   <energy>
    <i name="e_fr_energy">    -25.26542570 </i>
    <i name="e_wo_entrp">    -25.26536661 </i>
    <i name="e_0_energy">    -25.26539615 </i>
   </energy>
  </scstep>
  <scstep>
   <time name="dav">    4.81    4.82</time>
   <time name="total">    5.08    5.09</time>
   <dipole>
    <v name="dipole">      0.00000000       0.00000000       0.10933537 </v>
    <i name="Tr[quadrupol]">    -78.17884357 </i>
    <i name="Echarged">      0.00000000 </i>
    <i name="Edipol_quadrupol">      0.00000000 </i>
    <i name="Eion">      0.00000000 </i>
   </dipole>
   <energy>
    <i name="e_fr_energy">    -25.26549132 </i>
    <i name="e_wo_entrp">    -25.26543229 </i>
    <i name="e_0_energy">    -25.26546181 </i>
   </energy>
  </scstep>
  <scstep>
   <time name="dav">    5.07    5.09</time>
   <time name="total">    5.34    5.36</time>
   <dipole>
    <v name="dipole">      0.00000000       0.00000000       0.10917318 </v>
    <i name="Tr[quadrupol]">    -78.17705702 </i>
    <i name="Echarged">      0.00000000 </i>
    <i name="Edipol_quadrupol">      0.00000000 </i>
    <i name="Eion">      0.00000000 </i>
   </dipole>
   <energy>
    <i name="e_fr_energy">    -25.26550717 </i>
    <i name="e_wo_entrp">    -25.26544814 </i>
    <i name="e_0_energy">    -25.26547765 </i>
   </energy>
  </scstep>
  <scstep>
   <time name="dav">    4.95    4.98</time>
   <time name="total">    5.22    5.25</time>
   <dipole>
    <v name="dipole">      0.00000000       0.00000000       0.10909078 </v>
    <i name="Tr[quadrupol]">    -78.17609395 </i>
    <i name="Echarged">      0.00000000 </i>
    <i name="Edipol_quadrupol">      0.00000000 </i>
    <i name="Eion">      0.00000000 </i>
   </dipole>
   <energy>
    <i name="e_fr_energy">    -25.26551238 </i>
    <i name="e_wo_entrp">    -25.26545341 </i>
    <i name="e_0_energy">    -25.26548290 </i>
   </energy>
  </scstep>
  <scstep>
   <time name="dav">    4.91    4.92</time>
   <time name="total">    5.19    5.20</time>
   <dipole>
    <v name="dipole">      0.00000000       0.00000000       0.10903687 </v>
    <i name="Tr[quadrupol]">    -78.17568268 </i>
    <i name="Echarged">      0.00000000 </i>
    <i name="Edipol_quadrupol">      0.00000000 </i>
    <i name="Eion">      0.00000000 </i>
   </dipole>
   <energy>
    <i name="e_fr_energy">    -25.26551464 </i>
    <i name="e_wo_entrp">    -25.26545569 </i>
    <i name="e_0_energy">    -25.26548516 </i>
   </energy>
  </scstep>
  <scstep>
   <time name="dav">    4.66    4.67</time>
   <time name="total">    4.94    4.95</time>
   <dipole>
    <v name="dipole">      0.00000000       0.00000000       0.10901535 </v>
    <i name="Tr[quadrupol]">    -78.17569494 </i>
    <i name="Echarged">      0.00000000 </i>
    <i name="Edipol_quadrupol">      0.00000000 </i>
    <i name="Eion">      0.00000000 </i>
   </dipole>
   <energy>
    <i name="e_fr_energy">    -25.26551529 </i>
    <i name="e_wo_entrp">    -25.26545632 </i>
    <i name="e_0_energy">    -25.26548581 </i>
   </energy>
  </scstep>
  <scstep>
   <time name="dav">    4.41    4.42</time>
   <time name="total">    4.69    4.70</time>
   <dipole>
    <v name="dipole">      0.00000000       0.00000000       0.10900098 </v>
    <i name="Tr[quadrupol]">    -78.17579085 </i>
    <i name="Echarged">      0.00000000 </i>
    <i name="Edipol_quadrupol">      0.00000000 </i>
    <i name="Eion">      0.00000000 </i>
   </dipole>
   <energy>
    <i name="e_fr_energy">    -25.26551574 </i>
    <i name="e_wo_entrp">    -25.26545677 </i>
    <i name="e_0_energy">    -25.26548625 </i>
   </energy>
  </scstep>
  <scstep>
   <time name="dav">    4.45    4.46</time>
   <time name="total">    4.53    4.54</time>
   <dipole>
    <v name="dipole">      0.00000000       0.00000000       0.10899755 </v>
    <i name="Tr[quadrupol]">    -78.17585438 </i>
    <i name="Echarged">      0.00000000 </i>
    <i name="Edipol_quadrupol">      0.00000000 </i>
    <i name="Eion">      0.00000000 </i>
   </dipole>
   <energy>
    <i name="alphaZ">     -2.62094647 </i>
    <i name="ewald">   1911.23135350 </i>
    <i name="hartreedc">  -2462.68495023 </i>
    <i name="XCdc">   -211.29659404 </i>
    <i name="pawpsdc">   1541.83568447 </i>
    <i name="pawaedc">  -1288.73718197 </i>
    <i name="eentropy">     -0.00005897 </i>
    <i name="bandstr">   -122.45322485 </i>
    <i name="atom">    609.46040274 </i>
    <i name="e_fr_energy">    -25.26551582 </i>
    <i name="e_wo_entrp">    -25.26545686 </i>
    <i name="e_0_energy">    -25.26548634 </i>
   </energy>
  </scstep>
  <structure>
   <crystal>
    <varray name="basis" >
     <v>       4.24003304      -0.03034612       0.00000000 </v>
     <v>      -2.14626662       3.71769095       0.00000000 </v>
     <v>       0.00000000       0.00000000      24.93969917 </v>
    </varray>
    <i name="volume">    391.50343712 </i>
    <varray name="rec_basis" >
     <v>       0.23682575       0.13672228       0.00000000 </v>
     <v>       0.00193312       0.27010018       0.00000000 </v>
     <v>       0.00000000       0.00000000       0.04009671 </v>
    </varray>
   </crystal>
   <varray name="positions" >
    <v>       0.35170961       0.67615767       0.10120431 </v>
    <v>       0.41267842       0.70562115       0.32393989 </v>
    <v>       0.57494199       0.28777146       0.17140490 </v>
    <v>       0.23683484       0.61873220       0.21492259 </v>
    <v>       0.68474040       0.34267459       0.05891482 </v>
    <v>       0.73923765       0.36889866       0.35883085 </v>
   </varray>
  </structure>
  <varray name="forces" >
   <v>       0.00001499      -0.00015064      -0.00011168 </v>
   <v>      -0.00060174      -0.00010976       0.00015696 </v>
   <v>       0.00011986      -0.00010752       0.00018382 </v>
   <v>       0.00025693       0.00013637      -0.00029249 </v>
   <v>       0.00021732      -0.00016529       0.00090068 </v>
   <v>      -0.00000736       0.00039684      -0.00083728 </v>
  </varray>
  <varray name="stress" >
   <v>       0.00434700       0.00326699      -0.01324874 </v>
   <v>       0.00326702      -0.00194995       0.00796477 </v>
   <v>      -0.01324877       0.00796478      -0.07730760 </v>
  </varray>
  <energy>
   <i name="e_fr_energy">    -26.76371095 </i>
   <i name="e_wo_entrp">    -26.76368147 </i>
   <i name="e_0_energy">     -0.00005897 </i>
  </energy>
  <time name="totalsc">  187.21  198.95</time>
  <eigenvalues>
   <array>
    <dimension dim="1">band</dimension>
    <dimension dim="2">kpoint</dimension>
    <dimension dim="3">spin</dimension>
    <field>eigene</field>
    <field>occ</field>
    <set>
     <set comment="spin 1">
      <set comment="kpoint 1">
       <r>  -12.0002    1.0000 </r>
       <r>  -10.8987    1.0000 </r>
       <r>  -10.0844    1.0000 </r>
       <r>   -6.1043    1.0000 </r>
       <r>   -3.5088    1.0000 </r>
       <r>   -2.0834    1.0000 </r>
       <r>   -1.8880    1.0000 </r>
       <r>   -1.3138    1.0000 </r>
       <r>   -1.1252    1.0000 </r>
       <r>   -1.0354    1.0000 </r>
       <r>   -0.4249    0.0060 </r>
       <r>   -0.3989    0.0006 </r>
       <r>   -0.0255    0.0000 </r>
       <r>    1.2163    0.0000 </r>
       <r>    1.5859    0.0000 </r>
       <r>    1.7812    0.0000 </r>
       <r>    2.2323    0.0000 </r>
       <r>    2.2378    0.0000 </r>
       <r>    2.4289    0.0000 </r>
       <r>    3.2204    0.0000 </r>
       <r>    3.5534    0.0000 </r>
       <r>    3.6761    0.0000 </r>
       <r>    3.8074    0.0000 </r>
       <r>    4.2511    0.0000 </r>
      </set>
      <set comment="kpoint 2">
       <r>  -11.8173    1.0000 </r>
       <r>  -10.7425    1.0000 </r>
       <r>   -9.9150    1.0000 </r>
       <r>   -6.0024    1.0000 </r>
       <r>   -3.6916    1.0000 </r>
       <r>   -3.2296    1.0000 </r>
       <r>   -2.4650    1.0000 </r>
       <r>   -2.2551    1.0000 </r>
       <r>   -1.5391    1.0000 </r>
       <r>   -1.2807    1.0000 </r>
       <r>   -1.1195    1.0000 </r>
       <r>   -0.7171    1.0000 </r>
       <r>    0.4067    0.0000 </r>
       <r>    1.5202    0.0000 </r>
       <r>    1.8876    0.0000 </r>
       <r>    1.9478    0.0000 </r>
       <r>    2.4785    0.0000 </r>
       <r>    2.5908    0.0000 </r>
       <r>    3.0927    0.0000 </r>
       <r>    3.2619    0.0000 </r>
       <r>    3.7194    0.0000 </r>
       <r>    4.0140    0.0000 </r>
       <r>    4.3285    0.0000 </r>
       <r>    4.3962    0.0000 </r>
      </set>
      <set comment="kpoint 3">
       <r>  -11.3022    1.0000 </r>
       <r>  -10.3459    1.0000 </r>
       <r>   -9.4582    1.0000 </r>
       <r>   -5.9593    1.0000 </r>
       <r>   -5.2754    1.0000 </r>
       <r>   -4.0310    1.0000 </r>
       <r>   -3.5849    1.0000 </r>
       <r>   -3.0522    1.0000 </r>
       <r>   -2.4400    1.0000 </r>
       <r>   -1.7910    1.0000 </r>
       <r>   -1.2329    1.0000 </r>
       <r>   -1.1996    1.0000 </r>
       <r>   -0.1911    0.0000 </r>
       <r>    1.1265    0.0000 </r>
       <r>    1.4323    0.0000 </r>
       <r>    2.0344    0.0000 </r>
       <r>    2.3299    0.0000 </r>
       <r>    2.7083    0.0000 </r>
       <r>    3.9207    0.0000 </r>
       <r>    4.3692    0.0000 </r>
       <r>    4.5857    0.0000 </r>
       <r>    4.6731    0.0000 </r>
       <r>    4.9081    0.0000 </r>
       <r>    5.2204    0.0000 </r>
      </set>
      <set comment="kpoint 4">
       <r>  -10.6313    1.0000 </r>
       <r>  -10.0504    1.0000 </r>
       <r>   -8.9528    1.0000 </r>
       <r>   -6.5345    1.0000 </r>
       <r>   -6.2000    1.0000 </r>
       <r>   -5.2316    1.0000 </r>
       <r>   -3.6731    1.0000 </r>
       <r>   -3.4023    1.0000 </r>
       <r>   -2.6831    1.0000 </r>
       <r>   -2.1268    1.0000 </r>
       <r>   -1.5648    1.0000 </r>
       <r>   -1.2419    1.0000 </r>
       <r>   -0.6324    0.9996 </r>
       <r>    0.5800    0.0000 </r>
       <r>    1.1773    0.0000 </r>
       <r>    1.7193    0.0000 </r>
       <r>    1.9584    0.0000 </r>
       <r>    2.6013    0.0000 </r>
       <r>    3.5825    0.0000 </r>
       <r>    4.4378    0.0000 </r>
       <r>    5.2792    0.0000 </r>
       <r>    5.4693    0.0000 </r>
       <r>    5.6369    0.0000 </r>
       <r>    6.1562    0.0000 </r>
      </set>
      <set comment="kpoint 5">
       <r>  -10.6313    1.0000 </r>
       <r>  -10.0504    1.0000 </r>
       <r>   -8.9528    1.0000 </r>
       <r>   -6.5345    1.0000 </r>
       <r>   -6.2000    1.0000 </r>
       <r>   -5.2316    1.0000 </r>
       <r>   -3.6731    1.0000 </r>
       <r>   -3.4023    1.0000 </r>
       <r>   -2.6831    1.0000 </r>
       <r>   -2.1268    1.0000 </r>
       <r>   -1.5648    1.0000 </r>
       <r>   -1.2419    1.0000 </r>
       <r>   -0.6324    0.9996 </r>
       <r>    0.5800    0.0000 </r>
       <r>    1.1773    0.0000 </r>
       <r>    1.7193    0.0000 </r>
       <r>    1.9584    0.0000 </r>
       <r>    2.6013    0.0000 </r>
       <r>    3.5825    0.0000 </r>
       <r>    4.4378    0.0000 </r>
       <r>    5.2792    0.0000 </r>
       <r>    5.4693    0.0000 </r>
       <r>    5.6369    0.0000 </r>
       <r>    6.1562    0.0000 </r>
      </set>
      <set comment="kpoint 6">
       <r>  -11.3022    1.0000 </r>
       <r>  -10.3459    1.0000 </r>
       <r>   -9.4582    1.0000 </r>
       <r>   -5.9593    1.0000 </r>
       <r>   -5.2754    1.0000 </r>
       <r>   -4.0310    1.0000 </r>
       <r>   -3.5849    1.0000 </r>
       <r>   -3.0522    1.0000 </r>
       <r>   -2.4400    1.0000 </r>
       <r>   -1.7910    1.0000 </r>
       <r>   -1.2329    1.0000 </r>
       <r>   -1.1996    1.0000 </r>
       <r>   -0.1911    0.0000 </r>
       <r>    1.1265    0.0000 </r>
       <r>    1.4323    0.0000 </r>
       <r>    2.0344    0.0000 </r>
       <r>    2.3299    0.0000 </r>
       <r>    2.7083    0.0000 </r>
       <r>    3.9207    0.0000 </r>
       <r>    4.3692    0.0000 </r>
       <r>    4.5857    0.0000 </r>
       <r>    4.6731    0.0000 </r>
       <r>    4.9081    0.0000 </r>
       <r>    5.2204    0.0000 </r>
      </set>
      <set comment="kpoint 7">
       <r>  -11.8173    1.0000 </r>
       <r>  -10.7425    1.0000 </r>
       <r>   -9.9150    1.0000 </r>
       <r>   -6.0024    1.0000 </r>
       <r>   -3.6916    1.0000 </r>
       <r>   -3.2296    1.0000 </r>
       <r>   -2.4650    1.0000 </r>
       <r>   -2.2551    1.0000 </r>
       <r>   -1.5391    1.0000 </r>
       <r>   -1.2807    1.0000 </r>
       <r>   -1.1195    1.0000 </r>
       <r>   -0.7171    1.0000 </r>
       <r>    0.4067    0.0000 </r>
       <r>    1.5202    0.0000 </r>
       <r>    1.8876    0.0000 </r>
       <r>    1.9478    0.0000 </r>
       <r>    2.4785    0.0000 </r>
       <r>    2.5908    0.0000 </r>
       <r>    3.0927    0.0000 </r>
       <r>    3.2619    0.0000 </r>
       <r>    3.7194    0.0000 </r>
       <r>    4.0140    0.0000 </r>
       <r>    4.3285    0.0000 </r>
       <r>    4.3962    0.0000 </r>
      </set>
      <set comment="kpoint 8">
       <r>  -11.8241    1.0000 </r>
       <r>  -10.7469    1.0000 </r>
       <r>   -9.9181    1.0000 </r>
       <r>   -5.9931    1.0000 </r>
       <r>   -3.7089    1.0000 </r>
       <r>   -3.3935    1.0000 </r>
       <r>   -2.3420    1.0000 </r>
       <r>   -2.2258    1.0000 </r>
       <r>   -1.6973    1.0000 </r>
       <r>   -1.2897    1.0000 </r>
       <r>   -1.0677    1.0000 </r>
       <r>   -0.6190    0.9986 </r>
       <r>    0.6801    0.0000 </r>
       <r>    1.4917    0.0000 </r>
       <r>    1.8296    0.0000 </r>
       <r>    2.1435    0.0000 </r>
       <r>    2.5085    0.0000 </r>
       <r>    2.6630    0.0000 </r>
       <r>    2.8453    0.0000 </r>
       <r>    3.4014    0.0000 </r>
       <r>    3.6582    0.0000 </r>
       <r>    4.0101    0.0000 </r>
       <r>    4.2411    0.0000 </r>
       <r>    4.4249    0.0000 </r>
      </set>
      <set comment="kpoint 9">
       <r>  -11.4747    1.0000 </r>
       <r>  -10.4660    1.0000 </r>
       <r>   -9.6020    1.0000 </r>
       <r>   -5.8936    1.0000 </r>
       <r>   -4.8435    1.0000 </r>
       <r>   -3.6390    1.0000 </r>
       <r>   -3.4237    1.0000 </r>
       <r>   -3.0379    1.0000 </r>
       <r>   -2.3587    1.0000 </r>
       <r>   -1.9434    1.0000 </r>
       <r>   -1.3648    1.0000 </r>
       <r>   -1.0740    1.0000 </r>
       <r>    1.0917    0.0000 </r>
       <r>    1.4788    0.0000 </r>
       <r>    1.6454    0.0000 </r>
       <r>    2.1643    0.0000 </r>
       <r>    2.2884    0.0000 </r>
       <r>    3.1130    0.0000 </r>
       <r>    3.4708    0.0000 </r>
       <r>    3.6671    0.0000 </r>
       <r>    3.9400    0.0000 </r>
       <r>    4.1642    0.0000 </r>
       <r>    4.7500    0.0000 </r>
       <r>    4.9662    0.0000 </r>
      </set>
      <set comment="kpoint 10">
       <r>  -10.8598    1.0000 </r>
       <r>  -10.0880    1.0000 </r>
       <r>   -9.0945    1.0000 </r>
       <r>   -6.2456    1.0000 </r>
       <r>   -5.8390    1.0000 </r>
       <r>   -4.7365    1.0000 </r>
       <r>   -4.0504    1.0000 </r>
       <r>   -3.6572    1.0000 </r>
       <r>   -2.7224    1.0000 </r>
       <r>   -2.4270    1.0000 </r>
       <r>   -2.1028    1.0000 </r>
       <r>   -1.1586    1.0000 </r>
       <r>    0.7286    0.0000 </r>
       <r>    1.0455    0.0000 </r>
       <r>    1.4547    0.0000 </r>
       <r>    1.9620    0.0000 </r>
       <r>    2.6505    0.0000 </r>
       <r>    3.1960    0.0000 </r>
       <r>    3.8560    0.0000 </r>
       <r>    4.1275    0.0000 </r>
       <r>    4.4670    0.0000 </r>
       <r>    4.6193    0.0000 </r>
       <r>    5.2557    0.0000 </r>
       <r>    5.5838    0.0000 </r>
      </set>
      <set comment="kpoint 11">
       <r>  -10.3671    1.0000 </r>
       <r>  -10.0310    1.0000 </r>
       <r>   -8.7873    1.0000 </r>
       <r>   -6.6118    1.0000 </r>
       <r>   -6.2546    1.0000 </r>
       <r>   -5.3913    1.0000 </r>
       <r>   -4.2831    1.0000 </r>
       <r>   -3.4252    1.0000 </r>
       <r>   -2.8909    1.0000 </r>
       <r>   -2.8560    1.0000 </r>
       <r>   -2.3605    1.0000 </r>
       <r>   -0.9820    1.0000 </r>
       <r>    0.4350    0.0000 </r>
       <r>    0.5775    0.0000 </r>
       <r>    1.5998    0.0000 </r>
       <r>    1.9164    0.0000 </r>
       <r>    2.4144    0.0000 </r>
       <r>    3.0441    0.0000 </r>
       <r>    3.5306    0.0000 </r>
       <r>    4.2913    0.0000 </r>
       <r>    5.2519    0.0000 </r>
       <r>    5.5960    0.0000 </r>
       <r>    6.1681    0.0000 </r>
       <r>    6.1815    0.0000 </r>
      </set>
      <set comment="kpoint 12">
       <r>  -10.8597    1.0000 </r>
       <r>  -10.0879    1.0000 </r>
       <r>   -9.0944    1.0000 </r>
       <r>   -6.2454    1.0000 </r>
       <r>   -5.8395    1.0000 </r>
       <r>   -4.7363    1.0000 </r>
       <r>   -4.0502    1.0000 </r>
       <r>   -3.6573    1.0000 </r>
       <r>   -2.7228    1.0000 </r>
       <r>   -2.4272    1.0000 </r>
       <r>   -2.1028    1.0000 </r>
       <r>   -1.1578    1.0000 </r>
       <r>    0.7289    0.0000 </r>
       <r>    1.0464    0.0000 </r>
       <r>    1.4538    0.0000 </r>
       <r>    1.9610    0.0000 </r>
       <r>    2.6494    0.0000 </r>
       <r>    3.1968    0.0000 </r>
       <r>    3.8550    0.0000 </r>
       <r>    4.1267    0.0000 </r>
       <r>    4.4667    0.0000 </r>
       <r>    4.6198    0.0000 </r>
       <r>    5.2560    0.0000 </r>
       <r>    5.5837    0.0000 </r>
      </set>
      <set comment="kpoint 13">
       <r>  -11.4747    1.0000 </r>
       <r>  -10.4660    1.0000 </r>
       <r>   -9.6019    1.0000 </r>
       <r>   -5.8933    1.0000 </r>
       <r>   -4.8440    1.0000 </r>
       <r>   -3.6388    1.0000 </r>
       <r>   -3.4231    1.0000 </r>
       <r>   -3.0381    1.0000 </r>
       <r>   -2.3599    1.0000 </r>
       <r>   -1.9434    1.0000 </r>
       <r>   -1.3647    1.0000 </r>
       <r>   -1.0729    1.0000 </r>
       <r>    1.0907    0.0000 </r>
       <r>    1.4787    0.0000 </r>
       <r>    1.6456    0.0000 </r>
       <r>    2.1631    0.0000 </r>
       <r>    2.2886    0.0000 </r>
       <r>    3.1121    0.0000 </r>
       <r>    3.4724    0.0000 </r>
       <r>    3.6670    0.0000 </r>
       <r>    3.9381    0.0000 </r>
       <r>    4.1640    0.0000 </r>
       <r>    4.7501    0.0000 </r>
       <r>    4.9650    0.0000 </r>
      </set>
      <set comment="kpoint 14">
       <r>  -11.8241    1.0000 </r>
       <r>  -10.7469    1.0000 </r>
       <r>   -9.9181    1.0000 </r>
       <r>   -5.9930    1.0000 </r>
       <r>   -3.7095    1.0000 </r>
       <r>   -3.3926    1.0000 </r>
       <r>   -2.3421    1.0000 </r>
       <r>   -2.2260    1.0000 </r>
       <r>   -1.6977    1.0000 </r>
       <r>   -1.2898    1.0000 </r>
       <r>   -1.0675    1.0000 </r>
       <r>   -0.6189    0.9985 </r>
       <r>    0.6798    0.0000 </r>
       <r>    1.4913    0.0000 </r>
       <r>    1.8287    0.0000 </r>
       <r>    2.1435    0.0000 </r>
       <r>    2.5090    0.0000 </r>
       <r>    2.6634    0.0000 </r>
       <r>    2.8457    0.0000 </r>
       <r>    3.4017    0.0000 </r>
       <r>    3.6582    0.0000 </r>
       <r>    4.0087    0.0000 </r>
       <r>    4.2413    0.0000 </r>
       <r>    4.4257    0.0000 </r>
      </set>
      <set comment="kpoint 15">
       <r>  -11.3338    1.0000 </r>
       <r>  -10.3563    1.0000 </r>
       <r>   -9.4677    1.0000 </r>
       <r>   -5.8934    1.0000 </r>
       <r>   -5.4400    1.0000 </r>
       <r>   -4.0274    1.0000 </r>
       <r>   -3.7668    1.0000 </r>
       <r>   -2.8453    1.0000 </r>
       <r>   -2.5833    1.0000 </r>
       <r>   -1.7605    1.0000 </r>
       <r>   -1.1889    1.0000 </r>
       <r>   -1.0201    1.0000 </r>
       <r>    0.3210    0.0000 </r>
       <r>    0.7980    0.0000 </r>
       <r>    1.5310    0.0000 </r>
       <r>    2.0738    0.0000 </r>
       <r>    2.5014    0.0000 </r>
       <r>    3.1284    0.0000 </r>
       <r>    3.8126    0.0000 </r>
       <r>    4.0507    0.0000 </r>
       <r>    4.4027    0.0000 </r>
       <r>    4.7034    0.0000 </r>
       <r>    4.8873    0.0000 </r>
       <r>    5.2976    0.0000 </r>
      </set>
      <set comment="kpoint 16">
       <r>  -10.8935    1.0000 </r>
       <r>  -10.0837    1.0000 </r>
       <r>   -9.1000    1.0000 </r>
       <r>   -6.2953    1.0000 </r>
       <r>   -5.8653    1.0000 </r>
       <r>   -4.6957    1.0000 </r>
       <r>   -4.0871    1.0000 </r>
       <r>   -3.7111    1.0000 </r>
       <r>   -2.5853    1.0000 </r>
       <r>   -2.5397    1.0000 </r>
       <r>   -1.9770    1.0000 </r>
       <r>   -1.0924    1.0000 </r>
       <r>    0.7927    0.0000 </r>
       <r>    1.1053    0.0000 </r>
       <r>    1.4643    0.0000 </r>
       <r>    2.1143    0.0000 </r>
       <r>    2.9459    0.0000 </r>
       <r>    3.3178    0.0000 </r>
       <r>    3.4742    0.0000 </r>
       <r>    4.0138    0.0000 </r>
       <r>    4.4434    0.0000 </r>
       <r>    4.8773    0.0000 </r>
       <r>    5.1854    0.0000 </r>
       <r>    5.4062    0.0000 </r>
      </set>
      <set comment="kpoint 17">
       <r>  -10.3443    1.0000 </r>
       <r>   -9.9570    1.0000 </r>
       <r>   -8.7269    1.0000 </r>
       <r>   -6.5555    1.0000 </r>
       <r>   -6.1365    1.0000 </r>
       <r>   -5.2583    1.0000 </r>
       <r>   -4.8701    1.0000 </r>
       <r>   -3.6664    1.0000 </r>
       <r>   -3.3014    1.0000 </r>
       <r>   -2.9926    1.0000 </r>
       <r>   -2.7035    1.0000 </r>
       <r>   -0.8532    1.0000 </r>
       <r>    0.5931    0.0000 </r>
       <r>    0.9350    0.0000 </r>
       <r>    1.7767    0.0000 </r>
       <r>    3.0933    0.0000 </r>
       <r>    3.4031    0.0000 </r>
       <r>    3.6193    0.0000 </r>
       <r>    3.8823    0.0000 </r>
       <r>    4.6086    0.0000 </r>
       <r>    5.0976    0.0000 </r>
       <r>    5.4197    0.0000 </r>
       <r>    5.5301    0.0000 </r>
       <r>    5.7653    0.0000 </r>
      </set>
      <set comment="kpoint 18">
       <r>  -10.3442    1.0000 </r>
       <r>   -9.9570    1.0000 </r>
       <r>   -8.7267    1.0000 </r>
       <r>   -6.5551    1.0000 </r>
       <r>   -6.1374    1.0000 </r>
       <r>   -5.2575    1.0000 </r>
       <r>   -4.8701    1.0000 </r>
       <r>   -3.6670    1.0000 </r>
       <r>   -3.3015    1.0000 </r>
       <r>   -2.9925    1.0000 </r>
       <r>   -2.7038    1.0000 </r>
       <r>   -0.8524    1.0000 </r>
       <r>    0.5955    0.0000 </r>
       <r>    0.9321    0.0000 </r>
       <r>    1.7758    0.0000 </r>
       <r>    3.0929    0.0000 </r>
       <r>    3.4050    0.0000 </r>
       <r>    3.6170    0.0000 </r>
       <r>    3.8821    0.0000 </r>
       <r>    4.6073    0.0000 </r>
       <r>    5.0995    0.0000 </r>
       <r>    5.4196    0.0000 </r>
       <r>    5.5286    0.0000 </r>
       <r>    5.7661    0.0000 </r>
      </set>
      <set comment="kpoint 19">
       <r>  -10.8934    1.0000 </r>
       <r>  -10.0836    1.0000 </r>
       <r>   -9.0997    1.0000 </r>
       <r>   -6.2949    1.0000 </r>
       <r>   -5.8660    1.0000 </r>
       <r>   -4.6949    1.0000 </r>
       <r>   -4.0874    1.0000 </r>
       <r>   -3.7114    1.0000 </r>
       <r>   -2.5862    1.0000 </r>
       <r>   -2.5410    1.0000 </r>
       <r>   -1.9766    1.0000 </r>
       <r>   -1.0904    1.0000 </r>
       <r>    0.7937    0.0000 </r>
       <r>    1.1040    0.0000 </r>
       <r>    1.4618    0.0000 </r>
       <r>    2.1149    0.0000 </r>
       <r>    2.9443    0.0000 </r>
       <r>    3.3186    0.0000 </r>
       <r>    3.4738    0.0000 </r>
       <r>    4.0100    0.0000 </r>
       <r>    4.4464    0.0000 </r>
       <r>    4.8766    0.0000 </r>
       <r>    5.1859    0.0000 </r>
       <r>    5.4073    0.0000 </r>
      </set>
      <set comment="kpoint 20">
       <r>  -11.3338    1.0000 </r>
       <r>  -10.3562    1.0000 </r>
       <r>   -9.4676    1.0000 </r>
       <r>   -5.8927    1.0000 </r>
       <r>   -5.4406    1.0000 </r>
       <r>   -4.0272    1.0000 </r>
       <r>   -3.7661    1.0000 </r>
       <r>   -2.8458    1.0000 </r>
       <r>   -2.5850    1.0000 </r>
       <r>   -1.7609    1.0000 </r>
       <r>   -1.1879    1.0000 </r>
       <r>   -1.0195    1.0000 </r>
       <r>    0.3205    0.0000 </r>
       <r>    0.7972    0.0000 </r>
       <r>    1.5304    0.0000 </r>
       <r>    2.0738    0.0000 </r>
       <r>    2.5014    0.0000 </r>
       <r>    3.1290    0.0000 </r>
       <r>    3.8103    0.0000 </r>
       <r>    4.0501    0.0000 </r>
       <r>    4.4030    0.0000 </r>
       <r>    4.7027    0.0000 </r>
       <r>    4.8894    0.0000 </r>
       <r>    5.2986    0.0000 </r>
      </set>
      <set comment="kpoint 21">
       <r>  -11.4946    1.0000 </r>
       <r>  -10.4759    1.0000 </r>
       <r>   -9.6100    1.0000 </r>
       <r>   -5.8417    1.0000 </r>
       <r>   -4.9151    1.0000 </r>
       <r>   -3.8247    1.0000 </r>
       <r>   -3.3990    1.0000 </r>
       <r>   -2.7833    1.0000 </r>
       <r>   -2.5755    1.0000 </r>
       <r>   -1.9693    1.0000 </r>
       <r>   -1.3629    1.0000 </r>
       <r>   -0.9483    1.0000 </r>
       <r>    1.1991    0.0000 </r>
       <r>    1.5075    0.0000 </r>
       <r>    1.8183    0.0000 </r>
       <r>    2.0239    0.0000 </r>
       <r>    2.7627    0.0000 </r>
       <r>    3.3213    0.0000 </r>
       <r>    3.4753    0.0000 </r>
       <r>    3.8456    0.0000 </r>
       <r>    3.9461    0.0000 </r>
       <r>    4.1417    0.0000 </r>
       <r>    4.4194    0.0000 </r>
       <r>    4.8874    0.0000 </r>
      </set>
      <set comment="kpoint 22">
       <r>  -10.7337    1.0000 </r>
       <r>  -10.0131    1.0000 </r>
       <r>   -8.9670    1.0000 </r>
       <r>   -6.7030    1.0000 </r>
       <r>   -6.1399    1.0000 </r>
       <r>   -5.1386    1.0000 </r>
       <r>   -4.0748    1.0000 </r>
       <r>   -3.1905    1.0000 </r>
       <r>   -2.6794    1.0000 </r>
       <r>   -2.0401    1.0000 </r>
       <r>   -1.4990    1.0000 </r>
       <r>   -1.1290    1.0000 </r>
       <r>   -0.0593    0.0000 </r>
       <r>    0.6434    0.0000 </r>
       <r>    0.8890    0.0000 </r>
       <r>    1.6182    0.0000 </r>
       <r>    2.1588    0.0000 </r>
       <r>    2.8437    0.0000 </r>
       <r>    3.7473    0.0000 </r>
       <r>    4.4866    0.0000 </r>
       <r>    5.2492    0.0000 </r>
       <r>    5.4636    0.0000 </r>
       <r>    5.6653    0.0000 </r>
       <r>    6.0979    0.0000 </r>
      </set>
      <set comment="kpoint 23">
       <r>  -10.5015    1.0000 </r>
       <r>   -9.9473    1.0000 </r>
       <r>   -8.8017    1.0000 </r>
       <r>   -6.7544    1.0000 </r>
       <r>   -6.2312    1.0000 </r>
       <r>   -5.3080    1.0000 </r>
       <r>   -4.1250    1.0000 </r>
       <r>   -3.8586    1.0000 </r>
       <r>   -2.9052    1.0000 </r>
       <r>   -2.6018    1.0000 </r>
       <r>   -2.2368    1.0000 </r>
       <r>   -0.9570    1.0000 </r>
       <r>    0.5789    0.0000 </r>
       <r>    0.9628    0.0000 </r>
       <r>    1.1508    0.0000 </r>
       <r>    1.9523    0.0000 </r>
       <r>    2.7918    0.0000 </r>
       <r>    3.2448    0.0000 </r>
       <r>    3.7111    0.0000 </r>
       <r>    4.3226    0.0000 </r>
       <r>    5.1501    0.0000 </r>
       <r>    5.7287    0.0000 </r>
       <r>    5.9173    0.0000 </r>
       <r>    6.2362    0.0000 </r>
      </set>
      <set comment="kpoint 24">
       <r>  -10.4096    1.0000 </r>
       <r>   -9.9193    1.0000 </r>
       <r>   -8.7359    1.0000 </r>
       <r>   -6.5283    1.0000 </r>
       <r>   -6.1968    1.0000 </r>
       <r>   -5.3511    1.0000 </r>
       <r>   -4.6046    1.0000 </r>
       <r>   -3.7525    1.0000 </r>
       <r>   -3.5314    1.0000 </r>
       <r>   -2.9967    1.0000 </r>
       <r>   -2.5163    1.0000 </r>
       <r>   -0.8395    1.0000 </r>
       <r>    0.7266    0.0000 </r>
       <r>    0.8670    0.0000 </r>
       <r>    1.6277    0.0000 </r>
       <r>    3.1972    0.0000 </r>
       <r>    3.4745    0.0000 </r>
       <r>    3.8436    0.0000 </r>
       <r>    4.1531    0.0000 </r>
       <r>    4.8408    0.0000 </r>
       <r>    5.1225    0.0000 </r>
       <r>    5.2912    0.0000 </r>
       <r>    5.6670    0.0000 </r>
       <r>    5.7650    0.0000 </r>
      </set>
      <set comment="kpoint 25">
       <r>  -10.5013    1.0000 </r>
       <r>   -9.9472    1.0000 </r>
       <r>   -8.8014    1.0000 </r>
       <r>   -6.7541    1.0000 </r>
       <r>   -6.2322    1.0000 </r>
       <r>   -5.3067    1.0000 </r>
       <r>   -4.1253    1.0000 </r>
       <r>   -3.8592    1.0000 </r>
       <r>   -2.9059    1.0000 </r>
       <r>   -2.6029    1.0000 </r>
       <r>   -2.2365    1.0000 </r>
       <r>   -0.9549    1.0000 </r>
       <r>    0.5813    0.0000 </r>
       <r>    0.9598    0.0000 </r>
       <r>    1.1478    0.0000 </r>
       <r>    1.9530    0.0000 </r>
       <r>    2.7908    0.0000 </r>
       <r>    3.2457    0.0000 </r>
       <r>    3.7093    0.0000 </r>
       <r>    4.3230    0.0000 </r>
       <r>    5.1511    0.0000 </r>
       <r>    5.7299    0.0000 </r>
       <r>    5.9178    0.0000 </r>
       <r>    6.2366    0.0000 </r>
      </set>
      <set comment="kpoint 26">
       <r>  -10.7335    1.0000 </r>
       <r>  -10.0130    1.0000 </r>
       <r>   -8.9667    1.0000 </r>
       <r>   -6.7027    1.0000 </r>
       <r>   -6.1405    1.0000 </r>
       <r>   -5.1374    1.0000 </r>
       <r>   -4.0754    1.0000 </r>
       <r>   -3.1909    1.0000 </r>
       <r>   -2.6810    1.0000 </r>
       <r>   -2.0407    1.0000 </r>
       <r>   -1.4989    1.0000 </r>
       <r>   -1.1265    1.0000 </r>
       <r>   -0.0599    0.0000 </r>
       <r>    0.6451    0.0000 </r>
       <r>    0.8858    0.0000 </r>
       <r>    1.6169    0.0000 </r>
       <r>    2.1588    0.0000 </r>
       <r>    2.8435    0.0000 </r>
       <r>    3.7451    0.0000 </r>
       <r>    4.4890    0.0000 </r>
       <r>    5.2496    0.0000 </r>
       <r>    5.4655    0.0000 </r>
       <r>    5.6646    0.0000 </r>
       <r>    6.0973    0.0000 </r>
      </set>
      <set comment="kpoint 27">
       <r>  -10.9215    1.0000 </r>
       <r>  -10.0860    1.0000 </r>
       <r>   -9.1081    1.0000 </r>
       <r>   -6.2130    1.0000 </r>
       <r>   -5.9200    1.0000 </r>
       <r>   -4.7889    1.0000 </r>
       <r>   -3.9686    1.0000 </r>
       <r>   -3.6846    1.0000 </r>
       <r>   -2.9115    1.0000 </r>
       <r>   -2.3695    1.0000 </r>
       <r>   -2.0078    1.0000 </r>
       <r>   -0.9989    1.0000 </r>
       <r>    0.9257    0.0000 </r>
       <r>    1.2070    0.0000 </r>
       <r>    1.3058    0.0000 </r>
       <r>    1.9788    0.0000 </r>
       <r>    2.9670    0.0000 </r>
       <r>    3.4392    0.0000 </r>
       <r>    3.7861    0.0000 </r>
       <r>    4.1183    0.0000 </r>
       <r>    4.5933    0.0000 </r>
       <r>    4.8271    0.0000 </r>
       <r>    5.3065    0.0000 </r>
       <r>    5.6078    0.0000 </r>
      </set>
      <set comment="kpoint 28">
       <r>  -10.9216    1.0000 </r>
       <r>  -10.0860    1.0000 </r>
       <r>   -9.1083    1.0000 </r>
       <r>   -6.2135    1.0000 </r>
       <r>   -5.9193    1.0000 </r>
       <r>   -4.7895    1.0000 </r>
       <r>   -3.9684    1.0000 </r>
       <r>   -3.6844    1.0000 </r>
       <r>   -2.9108    1.0000 </r>
       <r>   -2.3687    1.0000 </r>
       <r>   -2.0082    1.0000 </r>
       <r>   -1.0000    1.0000 </r>
       <r>    0.9258    0.0000 </r>
       <r>    1.2075    0.0000 </r>
       <r>    1.3078    0.0000 </r>
       <r>    1.9779    0.0000 </r>
       <r>    2.9673    0.0000 </r>
       <r>    3.4391    0.0000 </r>
       <r>    3.7865    0.0000 </r>
       <r>    4.1200    0.0000 </r>
       <r>    4.5908    0.0000 </r>
       <r>    4.8273    0.0000 </r>
       <r>    5.3066    0.0000 </r>
       <r>    5.6070    0.0000 </r>
      </set>
      <set comment="kpoint 29">
       <r>  -10.7337    1.0000 </r>
       <r>  -10.0131    1.0000 </r>
       <r>   -8.9670    1.0000 </r>
       <r>   -6.7030    1.0000 </r>
       <r>   -6.1399    1.0000 </r>
       <r>   -5.1386    1.0000 </r>
       <r>   -4.0748    1.0000 </r>
       <r>   -3.1905    1.0000 </r>
       <r>   -2.6794    1.0000 </r>
       <r>   -2.0401    1.0000 </r>
       <r>   -1.4990    1.0000 </r>
       <r>   -1.1290    1.0000 </r>
       <r>   -0.0593    0.0000 </r>
       <r>    0.6434    0.0000 </r>
       <r>    0.8890    0.0000 </r>
       <r>    1.6182    0.0000 </r>
       <r>    2.1588    0.0000 </r>
       <r>    2.8437    0.0000 </r>
       <r>    3.7473    0.0000 </r>
       <r>    4.4866    0.0000 </r>
       <r>    5.2492    0.0000 </r>
       <r>    5.4636    0.0000 </r>
       <r>    5.6653    0.0000 </r>
       <r>    6.0979    0.0000 </r>
      </set>
      <set comment="kpoint 30">
       <r>  -10.9216    1.0000 </r>
       <r>  -10.0860    1.0000 </r>
       <r>   -9.1083    1.0000 </r>
       <r>   -6.2135    1.0000 </r>
       <r>   -5.9193    1.0000 </r>
       <r>   -4.7895    1.0000 </r>
       <r>   -3.9684    1.0000 </r>
       <r>   -3.6844    1.0000 </r>
       <r>   -2.9108    1.0000 </r>
       <r>   -2.3687    1.0000 </r>
       <r>   -2.0082    1.0000 </r>
       <r>   -1.0000    1.0000 </r>
       <r>    0.9258    0.0000 </r>
       <r>    1.2075    0.0000 </r>
       <r>    1.3078    0.0000 </r>
       <r>    1.9779    0.0000 </r>
       <r>    2.9673    0.0000 </r>
       <r>    3.4391    0.0000 </r>
       <r>    3.7865    0.0000 </r>
       <r>    4.1200    0.0000 </r>
       <r>    4.5908    0.0000 </r>
       <r>    4.8273    0.0000 </r>
       <r>    5.3066    0.0000 </r>
       <r>    5.6070    0.0000 </r>
      </set>
      <set comment="kpoint 31">
       <r>  -10.9215    1.0000 </r>
       <r>  -10.0860    1.0000 </r>
       <r>   -9.1081    1.0000 </r>
       <r>   -6.2130    1.0000 </r>
       <r>   -5.9200    1.0000 </r>
       <r>   -4.7889    1.0000 </r>
       <r>   -3.9686    1.0000 </r>
       <r>   -3.6846    1.0000 </r>
       <r>   -2.9115    1.0000 </r>
       <r>   -2.3695    1.0000 </r>
       <r>   -2.0078    1.0000 </r>
       <r>   -0.9989    1.0000 </r>
       <r>    0.9257    0.0000 </r>
       <r>    1.2070    0.0000 </r>
       <r>    1.3058    0.0000 </r>
       <r>    1.9788    0.0000 </r>
       <r>    2.9670    0.0000 </r>
       <r>    3.4392    0.0000 </r>
       <r>    3.7861    0.0000 </r>
       <r>    4.1183    0.0000 </r>
       <r>    4.5933    0.0000 </r>
       <r>    4.8271    0.0000 </r>
       <r>    5.3065    0.0000 </r>
       <r>    5.6078    0.0000 </r>
      </set>
      <set comment="kpoint 32">
       <r>  -10.7335    1.0000 </r>
       <r>  -10.0130    1.0000 </r>
       <r>   -8.9667    1.0000 </r>
       <r>   -6.7027    1.0000 </r>
       <r>   -6.1405    1.0000 </r>
       <r>   -5.1374    1.0000 </r>
       <r>   -4.0754    1.0000 </r>
       <r>   -3.1909    1.0000 </r>
       <r>   -2.6810    1.0000 </r>
       <r>   -2.0407    1.0000 </r>
       <r>   -1.4989    1.0000 </r>
       <r>   -1.1265    1.0000 </r>
       <r>   -0.0599    0.0000 </r>
       <r>    0.6451    0.0000 </r>
       <r>    0.8858    0.0000 </r>
       <r>    1.6169    0.0000 </r>
       <r>    2.1588    0.0000 </r>
       <r>    2.8435    0.0000 </r>
       <r>    3.7451    0.0000 </r>
       <r>    4.4890    0.0000 </r>
       <r>    5.2496    0.0000 </r>
       <r>    5.4655    0.0000 </r>
       <r>    5.6646    0.0000 </r>
       <r>    6.0973    0.0000 </r>
      </set>
      <set comment="kpoint 33">
       <r>  -10.5013    1.0000 </r>
       <r>   -9.9472    1.0000 </r>
       <r>   -8.8014    1.0000 </r>
       <r>   -6.7541    1.0000 </r>
       <r>   -6.2322    1.0000 </r>
       <r>   -5.3067    1.0000 </r>
       <r>   -4.1253    1.0000 </r>
       <r>   -3.8592    1.0000 </r>
       <r>   -2.9059    1.0000 </r>
       <r>   -2.6029    1.0000 </r>
       <r>   -2.2365    1.0000 </r>
       <r>   -0.9549    1.0000 </r>
       <r>    0.5813    0.0000 </r>
       <r>    0.9598    0.0000 </r>
       <r>    1.1478    0.0000 </r>
       <r>    1.9530    0.0000 </r>
       <r>    2.7908    0.0000 </r>
       <r>    3.2457    0.0000 </r>
       <r>    3.7093    0.0000 </r>
       <r>    4.3230    0.0000 </r>
       <r>    5.1511    0.0000 </r>
       <r>    5.7299    0.0000 </r>
       <r>    5.9178    0.0000 </r>
       <r>    6.2366    0.0000 </r>
      </set>
      <set comment="kpoint 34">
       <r>  -10.4096    1.0000 </r>
       <r>   -9.9193    1.0000 </r>
       <r>   -8.7359    1.0000 </r>
       <r>   -6.5283    1.0000 </r>
       <r>   -6.1968    1.0000 </r>
       <r>   -5.3511    1.0000 </r>
       <r>   -4.6046    1.0000 </r>
       <r>   -3.7525    1.0000 </r>
       <r>   -3.5314    1.0000 </r>
       <r>   -2.9967    1.0000 </r>
       <r>   -2.5163    1.0000 </r>
       <r>   -0.8395    1.0000 </r>
       <r>    0.7266    0.0000 </r>
       <r>    0.8670    0.0000 </r>
       <r>    1.6277    0.0000 </r>
[...]
       <r>     1.6007     2.2450    14.6464 </r>
       <r>     1.6676     2.3712    14.8049 </r>
       <r>     1.7344     1.0558    14.8756 </r>
       <r>     1.8013     1.6310    14.9846 </r>
       <r>     1.8682     1.7931    15.1046 </r>
       <r>     1.9351     2.1148    15.2460 </r>
       <r>     2.0020     3.5788    15.4854 </r>
       <r>     2.0688     2.1142    15.6267 </r>
       <r>     2.1357     2.6147    15.8016 </r>
       <r>     2.2026     2.7233    15.9838 </r>
       <r>     2.2695     1.1362    16.0597 </r>
       <r>     2.3364     1.1881    16.1392 </r>
       <r>     2.4032     0.6637    16.1836 </r>
       <r>     2.4701     1.1848    16.2628 </r>
       <r>     2.5370     2.0585    16.4005 </r>
       <r>     2.6039     1.3047    16.4878 </r>
       <r>     2.6708     1.9993    16.6215 </r>
       <r>     2.7376     1.4615    16.7192 </r>
       <r>     2.8045     1.5645    16.8239 </r>
       <r>     2.8714     2.0992    16.9643 </r>
       <r>     2.9383     1.2956    17.0509 </r>
       <r>     3.0052     1.5498    17.1546 </r>
       <r>     3.0720     1.3356    17.2439 </r>
       <r>     3.1389     2.8471    17.4343 </r>
       <r>     3.2058     2.2087    17.5820 </r>
       <r>     3.2727     2.2127    17.7300 </r>
       <r>     3.3396     1.7687    17.8483 </r>
       <r>     3.4064     2.0684    17.9866 </r>
       <r>     3.4733     3.6310    18.2295 </r>
       <r>     3.5402     2.5371    18.3992 </r>
       <r>     3.6071     1.5022    18.4996 </r>
       <r>     3.6740     2.6603    18.6776 </r>
       <r>     3.7408     2.9390    18.8741 </r>
       <r>     3.8077     2.8138    19.0623 </r>
       <r>     3.8746     3.2908    19.2824 </r>
       <r>     3.9415     2.6275    19.4581 </r>
       <r>     4.0084     2.6453    19.6350 </r>
       <r>     4.0752     2.5708    19.8070 </r>
       <r>     4.1421     2.7458    19.9906 </r>
       <r>     4.2090     2.3104    20.1451 </r>
       <r>     4.2759     1.4325    20.2409 </r>
       <r>     4.3428     2.0045    20.3750 </r>
       <r>     4.4096     3.0625    20.5798 </r>
       <r>     4.4765     4.2495    20.8640 </r>
       <r>     4.5434     1.8648    20.9887 </r>
       <r>     4.6103     2.3511    21.1460 </r>
       <r>     4.6772     2.6006    21.3199 </r>
       <r>     4.7440     1.6652    21.4313 </r>
       <r>     4.8109     1.1424    21.5077 </r>
       <r>     4.8778     2.5910    21.6809 </r>
       <r>     4.9447     2.4652    21.8458 </r>
       <r>     5.0116     0.9870    21.9118 </r>
       <r>     5.0784     0.5358    21.9477 </r>
       <r>     5.1453     1.8267    22.0698 </r>
       <r>     5.2122     2.2999    22.2237 </r>
       <r>     5.2791     3.5006    22.4578 </r>
       <r>     5.3460     2.6444    22.6346 </r>
       <r>     5.4128     2.1383    22.7776 </r>
       <r>     5.4797     2.4248    22.9398 </r>
       <r>     5.5466     1.8507    23.0636 </r>
       <r>     5.6135     2.5648    23.2351 </r>
       <r>     5.6804     2.3133    23.3898 </r>
       <r>     5.7472     1.9618    23.5210 </r>
       <r>     5.8141     1.5078    23.6219 </r>
       <r>     5.8810     0.3394    23.6446 </r>
       <r>     5.9479     0.7985    23.6980 </r>
       <r>     6.0148     0.2936    23.7176 </r>
       <r>     6.0816     0.5920    23.7572 </r>
       <r>     6.1485     1.1278    23.8326 </r>
       <r>     6.2154     1.4402    23.9290 </r>
       <r>     6.2823     0.9413    23.9919 </r>
       <r>     6.3492     0.1199    23.9999 </r>
       <r>     6.4160     0.0009    24.0000 </r>
       <r>     6.4829     0.0000    24.0000 </r>
       <r>     6.5498     0.0000    24.0000 </r>
       <r>     6.6167     0.0000    24.0000 </r>
       <r>     6.6836     0.0000    24.0000 </r>
       <r>     6.7504     0.0000    24.0000 </r>
       <r>     6.8173     0.0000    24.0000 </r>
       <r>     6.8842     0.0000    24.0000 </r>
       <r>     6.9511     0.0000    24.0000 </r>
       <r>     7.0180     0.0000    24.0000 </r>
       <r>     7.0848     0.0000    24.0000 </r>
       <r>     7.1517     0.0000    24.0000 </r>
      </set>
      <set comment="spin 2">
       <r>   -12.9123     0.0000     0.0000 </r>
       <r>   -12.8454     0.0000     0.0000 </r>
       <r>   -12.7785     0.0000     0.0000 </r>
       <r>   -12.7116     0.0000     0.0000 </r>
       <r>   -12.6447     0.0000     0.0000 </r>
       <r>   -12.5779     0.0000     0.0000 </r>
       <r>   -12.5110     0.0000     0.0000 </r>
       <r>   -12.4441     0.0000     0.0000 </r>
       <r>   -12.3772     0.0000     0.0000 </r>
       <r>   -12.3103     0.0000     0.0000 </r>
       <r>   -12.2435     0.0000     0.0000 </r>
       <r>   -12.1766     0.0000     0.0000 </r>
       <r>   -12.1097     0.0003     0.0000 </r>
       <r>   -12.0428     0.0346     0.0023 </r>
       <r>   -11.9759     0.1953     0.0154 </r>
       <r>   -11.9091     0.0863     0.0212 </r>
       <r>   -11.8422     0.5072     0.0551 </r>
       <r>   -11.7753     1.1384     0.1312 </r>
       <r>   -11.7084     0.1727     0.1428 </r>
       <r>   -11.6415     0.0013     0.1429 </r>
       <r>   -11.5747     0.0100     0.1435 </r>
       <r>   -11.5078     0.4196     0.1716 </r>
       <r>   -11.4409     1.1566     0.2489 </r>
       <r>   -11.3740     0.4104     0.2764 </r>
       <r>   -11.3071     1.0509     0.3467 </r>
       <r>   -11.2403     0.5849     0.3858 </r>
       <r>   -11.1734     0.0292     0.3877 </r>
       <r>   -11.1065     0.0001     0.3878 </r>
       <r>   -11.0396     0.0005     0.3878 </r>
       <r>   -10.9727     0.1110     0.3952 </r>
       <r>   -10.9059     1.3957     0.4886 </r>
       <r>   -10.8390     2.0279     0.6242 </r>
       <r>   -10.7721     1.0052     0.6914 </r>
       <r>   -10.7052     1.9970     0.8250 </r>
       <r>   -10.6383     0.7315     0.8739 </r>
       <r>   -10.5715     0.3650     0.8983 </r>
       <r>   -10.5046     0.8592     0.9558 </r>
       <r>   -10.4377     1.9648     1.0872 </r>
       <r>   -10.3708     1.8621     1.2117 </r>
       <r>   -10.3039     2.2973     1.3654 </r>
       <r>   -10.2371     0.3322     1.3876 </r>
       <r>   -10.1702     0.0367     1.3900 </r>
       <r>   -10.1033     1.2564     1.4741 </r>
       <r>   -10.0364     3.3528     1.6983 </r>
       <r>    -9.9695     2.5360     1.8679 </r>
       <r>    -9.9027     3.0876     2.0744 </r>
       <r>    -9.8358     0.9969     2.1411 </r>
       <r>    -9.7689     0.0266     2.1429 </r>
       <r>    -9.7020     0.0057     2.1432 </r>
       <r>    -9.6351     0.3522     2.1668 </r>
       <r>    -9.5683     1.1959     2.2468 </r>
       <r>    -9.5014     0.5489     2.2835 </r>
       <r>    -9.4345     1.1929     2.3633 </r>
       <r>    -9.3676     0.3601     2.3874 </r>
       <r>    -9.3007     0.0060     2.3878 </r>
       <r>    -9.2339     0.0004     2.3878 </r>
       <r>    -9.1670     0.1183     2.3957 </r>
       <r>    -9.1001     1.7431     2.5123 </r>
       <r>    -9.0332     1.7362     2.6284 </r>
       <r>    -8.9663     0.8945     2.6882 </r>
       <r>    -8.8995     0.9293     2.7504 </r>
       <r>    -8.8326     0.3670     2.7749 </r>
       <r>    -8.7657     1.4672     2.8730 </r>
       <r>    -8.6988     1.5411     2.9761 </r>
       <r>    -8.6319     0.3519     2.9996 </r>
       <r>    -8.5651     0.0054     3.0000 </r>
       <r>    -8.4982     0.0000     3.0000 </r>
       <r>    -8.4313     0.0000     3.0000 </r>
       <r>    -8.3644     0.0000     3.0000 </r>
       <r>    -8.2975     0.0000     3.0000 </r>
       <r>    -8.2307     0.0000     3.0000 </r>
       <r>    -8.1638     0.0000     3.0000 </r>
       <r>    -8.0969     0.0000     3.0000 </r>
       <r>    -8.0300     0.0000     3.0000 </r>
       <r>    -7.9631     0.0000     3.0000 </r>
       <r>    -7.8963     0.0000     3.0000 </r>
       <r>    -7.8294     0.0000     3.0000 </r>
       <r>    -7.7625     0.0000     3.0000 </r>
       <r>    -7.6956     0.0000     3.0000 </r>
       <r>    -7.6287     0.0000     3.0000 </r>
       <r>    -7.5619     0.0000     3.0000 </r>
       <r>    -7.4950     0.0000     3.0000 </r>
       <r>    -7.4281     0.0000     3.0000 </r>
       <r>    -7.3612     0.0000     3.0000 </r>
       <r>    -7.2943     0.0000     3.0000 </r>
       <r>    -7.2275     0.0000     3.0000 </r>
       <r>    -7.1606     0.0000     3.0000 </r>
       <r>    -7.0937     0.0000     3.0000 </r>
       <r>    -7.0268     0.0000     3.0000 </r>
       <r>    -6.9599     0.0000     3.0000 </r>
       <r>    -6.8931     0.0001     3.0000 </r>
       <r>    -6.8262     0.0258     3.0017 </r>
       <r>    -6.7593     0.5827     3.0407 </r>
       <r>    -6.6924     1.3225     3.1291 </r>
       <r>    -6.6255     0.7391     3.1786 </r>
       <r>    -6.5587     1.1751     3.2572 </r>
       <r>    -6.4918     1.4417     3.3536 </r>
       <r>    -6.4249     0.2041     3.3672 </r>
       <r>    -6.3580     0.0497     3.3706 </r>
       <r>    -6.2911     0.9079     3.4313 </r>
       <r>    -6.2243     3.0909     3.6380 </r>
       <r>    -6.1574     3.1623     3.8495 </r>
       <r>    -6.0905     1.9370     3.9790 </r>
       <r>    -6.0236     0.7355     4.0282 </r>
       <r>    -5.9567     1.7610     4.1460 </r>
       <r>    -5.8899     2.9773     4.3451 </r>
       <r>    -5.8230     3.2177     4.5603 </r>
       <r>    -5.7561     0.7588     4.6111 </r>
       <r>    -5.6892     0.0174     4.6122 </r>
       <r>    -5.6223     0.0000     4.6122 </r>
       <r>    -5.5555     0.0007     4.6123 </r>
       <r>    -5.4886     0.1060     4.6194 </r>
       <r>    -5.4217     0.8818     4.6784 </r>
       <r>    -5.3548     1.1407     4.7546 </r>
       <r>    -5.2879     1.6485     4.8649 </r>
       <r>    -5.2211     1.8747     4.9903 </r>
       <r>    -5.1542     0.8348     5.0461 </r>
       <r>    -5.0873     0.7438     5.0959 </r>
       <r>    -5.0204     0.0928     5.1021 </r>
       <r>    -4.9535     0.0965     5.1085 </r>
       <r>    -4.8867     0.9163     5.1698 </r>
       <r>    -4.8198     1.8858     5.2959 </r>
       <r>    -4.7529     1.6343     5.4052 </r>
       <r>    -4.6860     1.6064     5.5127 </r>
       <r>    -4.6191     0.7619     5.5636 </r>
       <r>    -4.5523     0.3797     5.5890 </r>
       <r>    -4.4854     0.0421     5.5918 </r>
       <r>    -4.4185     0.0003     5.5918 </r>
       <r>    -4.3516     0.0160     5.5929 </r>
       <r>    -4.2847     0.2777     5.6115 </r>
       <r>    -4.2179     0.3022     5.6317 </r>
       <r>    -4.1510     0.3642     5.6561 </r>
       <r>    -4.0841     2.1760     5.8016 </r>
       <r>    -4.0172     3.2982     6.0222 </r>
       <r>    -3.9503     1.7167     6.1370 </r>
       <r>    -3.8835     0.7108     6.1845 </r>
       <r>    -3.8166     1.2422     6.2676 </r>
       <r>    -3.7497     1.8369     6.3905 </r>
       <r>    -3.6828     4.1978     6.6712 </r>
       <r>    -3.6159     4.0936     6.9450 </r>
       <r>    -3.5491     1.2522     7.0287 </r>
       <r>    -3.4822     0.7827     7.0811 </r>
       <r>    -3.4153     1.8379     7.2040 </r>
       <r>    -3.3484     2.3135     7.3587 </r>
       <r>    -3.2815     1.0479     7.4288 </r>
       <r>    -3.2147     1.0018     7.4958 </r>
       <r>    -3.1478     0.9904     7.5620 </r>
       <r>    -3.0809     0.4165     7.5899 </r>
       <r>    -3.0140     1.6915     7.7030 </r>
       <r>    -2.9471     1.8906     7.8295 </r>
       <r>    -2.8803     2.4492     7.9933 </r>
       <r>    -2.8134     2.0560     8.1308 </r>
       <r>    -2.7465     1.1977     8.2109 </r>
       <r>    -2.6796     2.5683     8.3827 </r>
       <r>    -2.6127     2.3537     8.5401 </r>
       <r>    -2.5459     3.3632     8.7650 </r>
       <r>    -2.4790     1.9207     8.8935 </r>
       <r>    -2.4121     1.9125     9.0214 </r>
       <r>    -2.3452     2.9700     9.2200 </r>
       <r>    -2.2783     1.9089     9.3477 </r>
       <r>    -2.2115     1.9677     9.4793 </r>
       <r>    -2.1446     1.0960     9.5526 </r>
       <r>    -2.0777     1.5444     9.6559 </r>
       <r>    -2.0108     2.1105     9.7970 </r>
       <r>    -1.9439     2.6392     9.9735 </r>
       <r>    -1.8771     1.1585    10.0510 </r>
       <r>    -1.8102     0.4272    10.0796 </r>
       <r>    -1.7433     1.2411    10.1626 </r>
       <r>    -1.6764     1.1892    10.2421 </r>
       <r>    -1.6095     0.4171    10.2700 </r>
       <r>    -1.5427     0.7905    10.3229 </r>
       <r>    -1.4758     1.2429    10.4060 </r>
       <r>    -1.4089     0.5206    10.4408 </r>
       <r>    -1.3420     1.3379    10.5303 </r>
       <r>    -1.2751     1.9068    10.6578 </r>
       <r>    -1.2083     2.1940    10.8046 </r>
       <r>    -1.1414     2.9253    11.0002 </r>
       <r>    -1.0745     3.7351    11.2500 </r>
       <r>    -1.0076     3.4211    11.4788 </r>
       <r>    -0.9407     2.7183    11.6606 </r>
       <r>    -0.8739     1.2162    11.7419 </r>
       <r>    -0.8070     1.1925    11.8217 </r>
       <r>    -0.7401     0.3808    11.8472 </r>
       <r>    -0.6732     0.5407    11.8833 </r>
       <r>    -0.6063     1.1631    11.9611 </r>
       <r>    -0.5395     0.5641    11.9988 </r>
       <r>    -0.4726     0.0501    12.0022 </r>
       <r>    -0.4057     0.3121    12.0231 </r>
       <r>    -0.3388     0.2496    12.0398 </r>
       <r>    -0.2719     0.0226    12.0413 </r>
       <r>    -0.2051     0.2047    12.0550 </r>
       <r>    -0.1382     0.3741    12.0800 </r>
       <r>    -0.0713     0.5065    12.1138 </r>
       <r>    -0.0044     0.8876    12.1732 </r>
       <r>     0.0625     0.1541    12.1835 </r>
       <r>     0.1293     0.0023    12.1837 </r>
       <r>     0.1962     0.0003    12.1837 </r>
       <r>     0.2631     0.0626    12.1879 </r>
       <r>     0.3300     0.6830    12.2336 </r>
       <r>     0.3968     0.7790    12.2857 </r>
       <r>     0.4637     0.7579    12.3363 </r>
       <r>     0.5306     0.4054    12.3635 </r>
       <r>     0.5975     2.2298    12.5126 </r>
       <r>     0.6644     2.4775    12.6783 </r>
       <r>     0.7312     2.1177    12.8199 </r>
       <r>     0.7981     2.1361    12.9628 </r>
       <r>     0.8650     1.8076    13.0837 </r>
       <r>     0.9319     2.5722    13.2557 </r>
       <r>     0.9988     2.1563    13.3999 </r>
       <r>     1.0656     1.4786    13.4988 </r>
       <r>     1.1325     2.7261    13.6811 </r>
       <r>     1.1994     2.6535    13.8586 </r>
       <r>     1.2663     1.5541    13.9625 </r>
       <r>     1.3332     0.8941    14.0223 </r>
       <r>     1.4000     0.5268    14.0576 </r>
       <r>     1.4669     2.6120    14.2322 </r>
       <r>     1.5338     3.9458    14.4961 </r>
       <r>     1.6007     2.2456    14.6463 </r>
       <r>     1.6676     2.3715    14.8049 </r>
       <r>     1.7344     1.0558    14.8755 </r>
       <r>     1.8013     1.6304    14.9846 </r>
       <r>     1.8682     1.7932    15.1045 </r>
       <r>     1.9351     2.1149    15.2460 </r>
       <r>     2.0020     3.5790    15.4853 </r>
       <r>     2.0688     2.1142    15.6267 </r>
       <r>     2.1357     2.6147    15.8016 </r>
       <r>     2.2026     2.7231    15.9837 </r>
       <r>     2.2695     1.1362    16.0597 </r>
       <r>     2.3364     1.1886    16.1392 </r>
       <r>     2.4032     0.6638    16.1836 </r>
       <r>     2.4701     1.1847    16.2628 </r>
       <r>     2.5370     2.0585    16.4005 </r>
       <r>     2.6039     1.3046    16.4877 </r>
       <r>     2.6708     1.9990    16.6214 </r>
       <r>     2.7376     1.4618    16.7192 </r>
       <r>     2.8045     1.5639    16.8238 </r>
       <r>     2.8714     2.0990    16.9642 </r>
       <r>     2.9383     1.2964    17.0509 </r>
       <r>     3.0052     1.5500    17.1545 </r>
       <r>     3.0720     1.3346    17.2438 </r>
       <r>     3.1389     2.8464    17.4342 </r>
       <r>     3.2058     2.2084    17.5819 </r>
       <r>     3.2727     2.2094    17.7296 </r>
       <r>     3.3396     1.7730    17.8482 </r>
       <r>     3.4064     2.0686    17.9866 </r>
       <r>     3.4733     3.6227    18.2288 </r>
       <r>     3.5402     2.4930    18.3956 </r>
       <r>     3.6071     1.4852    18.4949 </r>
       <r>     3.6740     2.5458    18.6652 </r>
       <r>     3.7408     3.0303    18.8678 </r>
       <r>     3.8077     2.8644    19.0594 </r>
       <r>     3.8746     3.3090    19.2807 </r>
       <r>     3.9415     2.5689    19.4525 </r>
       <r>     4.0084     2.6088    19.6270 </r>
       <r>     4.0752     2.6482    19.8041 </r>
       <r>     4.1421     2.6240    19.9796 </r>
       <r>     4.2090     2.3610    20.1375 </r>
       <r>     4.2759     1.4852    20.2368 </r>
       <r>     4.3428     2.0228    20.3721 </r>
       <r>     4.4096     2.9832    20.5716 </r>
       <r>     4.4765     4.3174    20.8604 </r>
       <r>     4.5434     1.9093    20.9881 </r>
       <r>     4.6103     2.3091    21.1425 </r>
       <r>     4.6772     2.3955    21.3027 </r>
       <r>     4.7440     1.6976    21.4162 </r>
       <r>     4.8109     1.2814    21.5019 </r>
       <r>     4.8778     2.4051    21.6628 </r>
       <r>     4.9447     2.5191    21.8313 </r>
       <r>     5.0116     1.1276    21.9067 </r>
       <r>     5.0784     0.6082    21.9474 </r>
       <r>     5.1453     1.7690    22.0657 </r>
       <r>     5.2122     2.1480    22.2093 </r>
       <r>     5.2791     3.3699    22.4347 </r>
       <r>     5.3460     2.7484    22.6185 </r>
       <r>     5.4128     2.1111    22.7597 </r>
       <r>     5.4797     2.5999    22.9336 </r>
       <r>     5.5466     1.8343    23.0563 </r>
       <r>     5.6135     2.4607    23.2208 </r>
       <r>     5.6804     2.3215    23.3761 </r>
       <r>     5.7472     2.1216    23.5180 </r>
       <r>     5.8141     1.5456    23.6214 </r>
       <r>     5.8810     0.3404    23.6441 </r>
       <r>     5.9479     0.7968    23.6974 </r>
       <r>     6.0148     0.2939    23.7171 </r>
       <r>     6.0816     0.5587    23.7545 </r>
       <r>     6.1485     1.0798    23.8267 </r>
       <r>     6.2154     1.4742    23.9253 </r>
       <r>     6.2823     0.9780    23.9907 </r>
       <r>     6.3492     0.1382    23.9999 </r>
       <r>     6.4160     0.0012    24.0000 </r>
       <r>     6.4829     0.0000    24.0000 </r>
       <r>     6.5498     0.0000    24.0000 </r>
       <r>     6.6167     0.0000    24.0000 </r>
       <r>     6.6836     0.0000    24.0000 </r>
       <r>     6.7504     0.0000    24.0000 </r>
       <r>     6.8173     0.0000    24.0000 </r>
       <r>     6.8842     0.0000    24.0000 </r>
       <r>     6.9511     0.0000    24.0000 </r>
       <r>     7.0180     0.0000    24.0000 </r>
       <r>     7.0848     0.0000    24.0000 </r>
       <r>     7.1517     0.0000    24.0000 </r>
      </set>
     </set>
    </array>
   </total>
  </dos>
 </calculation>
 <structure name="finalpos" >
  <crystal>
   <varray name="basis" >
    <v>       4.24003304      -0.03034612       0.00000000 </v>
    <v>      -2.14626662       3.71769095       0.00000000 </v>
    <v>       0.00000000       0.00000000      24.93969917 </v>
   </varray>
   <i name="volume">    391.50343712 </i>
   <varray name="rec_basis" >
    <v>       0.23682575       0.13672228       0.00000000 </v>
    <v>       0.00193312       0.27010018       0.00000000 </v>
    <v>       0.00000000       0.00000000       0.04009671 </v>
   </varray>
  </crystal>
  <varray name="positions" >
   <v>       0.35170961       0.67615767       0.10120431 </v>
   <v>       0.41267842       0.70562115       0.32393989 </v>
   <v>       0.57494199       0.28777146       0.17140490 </v>
   <v>       0.23683484       0.61873220       0.21492259 </v>
   <v>       0.68474040       0.34267459       0.05891482 </v>
   <v>       0.73923765       0.36889866       0.35883085 </v>
  </varray>
 </structure>
</modeling>
