unknown system                          
           1
     4.240033   -0.030346    0.000000
    -2.146267    3.717691    0.000000
     0.000000    0.000000   24.939699
   Al   Sb
   3   3
Direct configuration=     1
   0.35170961  0.67615767  0.10120431
   0.41267842  0.70562115  0.32393989
   0.57494199  0.28777146  0.17140490
   0.23683484  0.61873220  0.21492259
   0.68474040  0.34267459  0.05891482
   0.73923765  0.36889866  0.35883085
